<LesHouchesEvents version="2.0">
<header>
<!--
#*********************************************************************
#                                                                    *
#                        MadGraph5_aMC@NLO                           *
#                                                                    *
#                           Going Beyond                             *
#                                                                    *
#                   http://madgraph.hep.uiuc.edu                     *
#                   http://madgraph.phys.ucl.ac.be                   *
#                   http://amcatnlo.cern.ch                          *
#                                                                    *
#                     The MadGraph5_aMC@NLO team                     *
#                                                                    *
#....................................................................*
#                                                                    *
# This file contains all the information necessary to reproduce      *
# the events generated:                                              *
#                                                                    *
# 1. software version                                                *
# 2. proc_card          : code generation info including model       *
# 3. param_card         : model primary parameters in the LH format  *
# 4. run_card           : running parameters (collider and cuts)     *
# 5. pythia_card        : present only if pythia has been run        *
# 6. pgs_card           : present only if pgs has been run           *
# 7. delphes_cards      : present only if delphes has been run       *
#                                                                    *
#                                                                    *
#*********************************************************************
-->
<MGVersion>
3.4.1
</MGVersion>
<MG5ProcCard>
<![CDATA[
#************************************************************
#*                     MadGraph5_aMC@NLO                    *
#*                                                          *
#*                *                       *                 *
#*                  *        * *        *                   *
#*                    * * * * 5 * * * *                     *
#*                  *        * *        *                   *
#*                *                       *                 *
#*                                                          *
#*                                                          *
#*         VERSION 3.4.1                 2022-09-01         *
#*                                                          *
#*    The MadGraph5_aMC@NLO Development Team - Find us at   *
#*    https://server06.fynu.ucl.ac.be/projects/madgraph     *
#*                                                          *
#************************************************************
#*                                                          *
#*               Command File for MadGraph5_aMC@NLO         *
#*                                                          *
#*     run as ./bin/mg5_aMC  filename                       *
#*                                                          *
#************************************************************
set group_subprocesses Auto
set ignore_six_quark_processes False
set low_mem_multicore_nlo_generation False
set complex_mass_scheme False
set include_lepton_initiated_processes False
set gauge unitary
set loop_optimized_output True
set loop_color_flows False
set max_npoint_for_channel 0
set default_unset_couplings 99
set max_t_for_channel 99
set zerowidth_tchannel True
set nlo_mixed_expansion True
import model sm
define p = g u c d s u~ c~ d~ s~
define j = g u c d s u~ c~ d~ s~
define l+ = e+ mu+
define l- = e- mu-
define vl = ve vm vt
define vl~ = ve~ vm~ vt~
define f = u c d s u~ c~ d~ s~ e- mu- e+ mu+
set auto_convert_model T
import model --modelname HAHM_variableMW_UFO
generate e+ e- > z > z h, z > l+ l-, (h > hs hs > b b~ b b~)
output HS_zll_HSbbbb_mHS20GeV
]]>
</MG5ProcCard>
<MGProcCard>
#*********************************************************************
#                        MadGraph/MadEvent                           *
#                   http://madgraph.hep.uiuc.edu                     *
#                                                                    *
#                          proc_card.dat                             *
#*********************************************************************
#                                                                    *
#            This Files is generated by MADGRAPH 5                   *
#                                                                    *
# WARNING: This Files is generated for MADEVENT (compatibility issue)*
#          This files is NOT a valid MG4 proc_card.dat               *
#          Running this in MG4 will NEVER reproduce the result of MG5*
#                                                                    *
#*********************************************************************
#*********************************************************************
# Process(es) requested : mg2 input                                  *
#*********************************************************************
# Begin PROCESS # This is TAG. Do not modify this line
e+ e- > z > z h , z > l+ l- , (h > hs hs > b b~ b b~)           #Process
# Be carefull the coupling are here in MG5 convention
          
end_coup           # End the couplings input

done               # this tells MG there are no more procs
# End PROCESS  # This is TAG. Do not modify this line
#*********************************************************************
# Model information                                                  *
#*********************************************************************
# Begin MODEL  # This is TAG. Do not modify this line
HAHM_variableMW_UFO
# End   MODEL  # This is TAG. Do not modify this line
#*********************************************************************
# Start multiparticle definitions                                    *
#*********************************************************************
# Begin MULTIPARTICLES # This is TAG. Do not modify this line

# End  MULTIPARTICLES # This is TAG. Do not modify this line
</MGProcCard>
<MGRunCard>
<![CDATA[
#*********************************************************************
#                       MadGraph5_aMC@NLO                            *
#                                                                    *
#                     run_card.dat MadEvent                          *
#                                                                    *
#  This file is used to set the parameters of the run.               *
#                                                                    *
#  Some notation/conventions:                                        *
#                                                                    *
#   Lines starting with a '# ' are info or comments                  *
#                                                                    *
#   mind the format:   value    = variable     ! comment             *
#                                                                    *
#   To display more options, you can type the command:               *
#      update to_full                                                *
#*********************************************************************
#                                                                    
#*********************************************************************
# Tag name for the run (one word)                                    *
#*********************************************************************
  tag_1	= run_tag ! name of the run 
#*********************************************************************
# Number of events and rnd seed                                      *
# Warning: Do not generate more than 1M events in a single run       *
#*********************************************************************
  1000	= nevents ! Number of unweighted events requested 
 21 = iseed ! rnd seed (0=assigned automatically=default))
#*********************************************************************
# Collider type and energy                                           *
# lpp: 0=No PDF, 1=proton, -1=antiproton, 2=elastic photon of proton,*
#             +/-3=PDF of electron/positron beam                     *
#             +/-4=PDF of muon/antimuon beam                         *
#*********************************************************************
  0	= lpp1 ! beam 1 type 
  0	= lpp2 ! beam 2 type
  120.0	= ebeam1 ! beam 1 total energy in GeV
  120.0	= ebeam2 ! beam 2 total energy in GeV
#*********************************************************************
# Beam polarization from -100 (left-handed) to 100 (right-handed)    *
#*********************************************************************
  0.0	= polbeam1 ! beam polarization for beam 1
  0.0	= polbeam2 ! beam polarization for beam 2


#*********************************************************************
# PDF CHOICE: this automatically fixes alpha_s and its evol.         *
# pdlabel: lhapdf=LHAPDF (installation needed) [1412.7420]           *
#          iww=Improved Weizsaecker-Williams Approx.[hep-ph/9310350] *
#          eva=Effective W/Z/A Approx.       [21yy.zzzzz]            *
#          none=No PDF, same as lhapdf with lppx=0                   *
#*********************************************************************
     none    = pdlabel1     ! PDF type for beam #1
     none    = pdlabel2     ! PDF type for beam #2230000	= lhaid ! if pdlabel=lhapdf, this is the lhapdf number
# To see heavy ion options: type "update ion_pdf"
#*********************************************************************
# Renormalization and factorization scales                           *
#*********************************************************************
  False	= fixed_ren_scale ! if .true. use fixed ren scale
  False	= fixed_fac_scale ! if .true. use fixed fac scale
  91.188	= scale ! fixed ren scale
  91.188	= dsqrt_q2fact1 ! fixed fact scale for pdf1
  91.188	= dsqrt_q2fact2 ! fixed fact scale for pdf2
  -1	= dynamical_scale_choice ! Choose one of the preselected dynamical choices
  1.0	= scalefact ! scale factor for event-by-event scales

 
#*********************************************************************
# Type and output format
#*********************************************************************
  False	= gridpack !True = setting up the grid pack
  -1.0	= time_of_flight ! threshold (in mm) below which the invariant livetime is not written (-1 means not written)
  average	= event_norm ! average/sum. Normalization of the weight in the LHEF
# To see MLM/CKKW  merging options: type "update MLM" or "update CKKW"

#*********************************************************************
#
#*********************************************************************
# Phase-Space Optimization strategy (basic options)
#*********************************************************************
  0	= nhel ! using helicities importance sampling or not.
                             ! 0: sum over helicity, 1: importance sampling
  2	= sde_strategy ! default integration strategy (hep-ph/2021.00773)
                             ! 1 is old strategy (using amp square)
			     ! 2 is new strategy (using only the denominator)
# To see advanced option for Phase-Space optimization: type "update psoptim"			     
#*********************************************************************
# Generation bias, check the wiki page below for more information:   *
#  'cp3.irmp.ucl.ac.be/projects/madgraph/wiki/LOEventGenerationBias' *
#*********************************************************************
  None	= bias_module ! Bias type of bias, [None, ptj_bias, -custom_folder-]
  {}	= bias_parameters ! Specifies the parameters of the module.
#
#*******************************                                                 
# Parton level cuts definition *
#*******************************
  0.0	= dsqrt_shat ! minimal shat for full process
#                                                                    
#
#*********************************************************************
# BW cutoff (M+/-bwcutoff*Gamma) ! Define on/off-shell for "$" and decay  
#*********************************************************************
  15.0	= bwcutoff ! (M+/-bwcutoff*Gamma)
 #*********************************************************************
 # Apply pt/E/eta/dr/mij/kt_durham cuts on decay products or not
 # (note that etmiss/ptll/ptheavy/ht/sorted cuts always apply)
 #*********************************************************************
  False	= cut_decays ! Cut decay products 
#*********************************************************************
# Standard Cuts                                                      *
#*********************************************************************
# Minimum and maximum pt's (for max, -1 means no cut)                *
#*********************************************************************
  0.0	= ptb ! minimum pt for the b 
  10.0	= ptl ! minimum pt for the charged leptons 
  -1.0	= ptbmax ! maximum pt for the b
  -1.0	= ptlmax ! maximum pt for the charged leptons
  {}	= pt_min_pdg ! pt cut for other particles (use pdg code). Applied on particle and anti-particle
  {}	= pt_max_pdg ! pt cut for other particles (syntax e.g. {6: 100, 25: 50}) 
#*********************************************************************
# Minimum and maximum E's (in the center of mass frame)              *
#*********************************************************************
  0.0	= ej ! minimum E for the jets
  0.0	= eb ! minimum E for the b
  0.0	= ea ! minimum E for the photons
  0.0	= el ! minimum E for the charged leptons
  -1.0	= ejmax ! maximum E for the jets
  -1.0	= ebmax ! maximum E for the b
  -1.0	= eamax ! maximum E for the photons
  -1.0	= elmax ! maximum E for the charged leptons
  {}	= e_min_pdg ! E cut for other particles (use pdg code). Applied on particle and anti-particle
  {}	= e_max_pdg ! E cut for other particles (syntax e.g. {6: 100, 25: 50})

#*********************************************************************
# Maximum and minimum absolute rapidity (for max, -1 means no cut)   *
#*********************************************************************
  -1.0	= etab ! max rap for the b
  2.5	= etal ! max rap for the charged leptons 
  0.0	= etabmin ! min rap for the b
  0.0	= etalmin ! main rap for the charged leptons
  {}	= eta_min_pdg ! rap cut for other particles (use pdg code). Applied on particle and anti-particle
  {}	= eta_max_pdg ! rap cut for other particles (syntax e.g. {6: 2.5, 23: 5})
#*********************************************************************
# Minimum and maximum DeltaR distance                                *
#*********************************************************************
  0.0	= drbb ! min distance between b's 
  0.4	= drll ! min distance between leptons 
  0.0	= drbl ! min distance between b and lepton 
  -1.0	= drbbmax ! max distance between b's
  -1.0	= drllmax ! max distance between leptons
  -1.0	= drblmax ! max distance between b and lepton
#*********************************************************************
# Minimum and maximum invariant mass for pairs                       *
#*********************************************************************
  0.0	= mmbb ! min invariant mass of a b pair 
  0.0	= mmll ! min invariant mass of l+l- (same flavour) lepton pair
  -1.0	= mmbbmax ! max invariant mass of a b pair
  -1.0	= mmllmax ! max invariant mass of l+l- (same flavour) lepton pair
  {}	= mxx_min_pdg ! min invariant mass of a pair of particles X/X~ (e.g. {6:250})
  {'default': False}	= mxx_only_part_antipart ! if True the invariant mass is applied only 
                       ! to pairs of particle/antiparticle and not to pairs of the same pdg codes.  
 #*********************************************************************
 # Minimum and maximum invariant mass for all letpons                 *
 #*********************************************************************
  0.0	= mmnl ! min invariant mass for all letpons (l+- and vl) 
  -1.0	= mmnlmax ! max invariant mass for all letpons (l+- and vl) 
 #*********************************************************************
 # Minimum and maximum pt for 4-momenta sum of leptons / neutrino     *
 #  for pair of lepton includes only same flavor, opposite charge
 #*********************************************************************
  0.0	= ptllmin ! Minimum pt for 4-momenta sum of leptons(l and vl)
  -1.0	= ptllmax ! Maximum pt for 4-momenta sum of leptons(l and vl)
#*********************************************************************
# Inclusive cuts                                                     *
#*********************************************************************
  0.0	= xptb ! minimum pt for at least one b 
  0.0	= xptl ! minimum pt for at least one charged lepton 
 #*********************************************************************
 # Control the pt's of leptons sorted by pt                           *
 #*********************************************************************
  0.0	= ptl1min ! minimum pt for the leading lepton in pt
  0.0	= ptl2min ! minimum pt for the second lepton in pt
  -1.0	= ptl1max ! maximum pt for the leading lepton in pt 
  -1.0	= ptl2max ! maximum pt for the second lepton in pt
 #*********************************************************************
 # Control the Ht(k)=Sum of k leading jets                            *
 #*********************************************************************
  0.0	= ihtmin !inclusive Ht for all partons (including b)
  -1.0	= ihtmax !inclusive Ht for all partons (including b)
  0.0	= ht2min ! minimum Ht for the two leading jets
  0.0	= ht3min ! minimum Ht for the three leading jets
  0.0	= ht4min ! minimum Ht for the four leading jets
  -1.0	= ht2max ! maximum Ht for the two leading jets
  -1.0	= ht3max ! maximum Ht for the three leading jets
  -1.0	= ht4max ! maximum Ht for the four leading jets
#*********************************************************************
# maximal pdg code for quark to be considered as a light jet         *
# (otherwise b cuts are applied)                                     *
#*********************************************************************
  4	= maxjetflavor ! Maximum jet pdg code
#*********************************************************************
#
#*********************************************************************
# Store info for systematics studies                                 *
# WARNING: Do not use for interference type of computation           *
#*********************************************************************
  False	= use_syst ! Enable systematics studies
#
  systematics	= systematics_program ! none, systematics [python], SysCalc [depreceted, C++]
  ['--mur=0.5,1,2', '--muf=0.5,1,2', '--pdf=errorset']	= systematics_arguments ! see: https://cp3.irmp.ucl.ac.be/projects/madgraph/wiki/Systematics#Systematicspythonmodule
]]>
</MGRunCard>
<slha>
######################################################################
## PARAM_CARD AUTOMATICALY GENERATED BY MG5                       ####
######################################################################
###################################
## INFORMATION FOR CKMBLOCK
###################################
BLOCK CKMBLOCK # 
      1 4.880000e-01 # cabi
###################################
## INFORMATION FOR GAUGEMASS
###################################
BLOCK GAUGEMASS # 
      1 9.118800e+01 # mzinput
###################################
## INFORMATION FOR HIDDEN
###################################
BLOCK HIDDEN # 
      1 1.000000e+03 # mzdinput
      2 2.000000e+01 # mhsinput
      3 1.000000e-09 # epsilon
      4 1.000000e-02 # kap
      5 1.279000e+02 # axm1
###################################
## INFORMATION FOR HIGGS
###################################
BLOCK HIGGS # 
      1 1.250000e+02 # mhinput
###################################
## INFORMATION FOR MASS
###################################
BLOCK MASS # 
      4 1.420000e+00 # mc
      5 4.700000e+00 # mb
      6 1.743000e+02 # mt
      15 1.777000e+00 # mta
      1 0.000000e+00 # d : 0.0
      2 0.000000e+00 # u : 0.0
      3 0.000000e+00 # s : 0.0
      11 0.000000e+00 # e- : 0.0
      12 0.000000e+00 # ve : 0.0
      13 0.000000e+00 # m- : 0.0
      14 0.000000e+00 # vm : 0.0
      16 0.000000e+00 # vt : 0.0
      21 0.000000e+00 # g : 0.0
      22 0.000000e+00 # a : 0.0
      23 9.118800e+01 # z : mzinput
      24 8.027652e+01 # w+ : cw*mz0
      25 1.250000e+02 # h : mhinput
      35 2.000000e+01 # hs : mhsinput
      1023 1.000000e+03 # zp : mzdinput
###################################
## INFORMATION FOR SMINPUTS
###################################
BLOCK SMINPUTS # 
      1 2.250000e-01 # swsq
      2 1.279000e+02 # aewm1
      3 1.166390e-05 # gf (note that parameter not used if you use a pdf set)
      4 1.180000e-01 # as
###################################
## INFORMATION FOR YUKAWA
###################################
BLOCK YUKAWA # 
      4 1.420000e+00 # ymc
      5 4.700000e+00 # ymb
      6 1.743000e+02 # ymt
      15 1.777000e+00 # ymtau
###################################
## INFORMATION FOR DECAY
###################################
DECAY 6 1.508336e+00 # wt
DECAY 23 2.441404e+00 # wz
DECAY 24 2.047600e+00 # ww
DECAY 25 2.822990e-03 # wh
DECAY 35 5.237950e+00 # whs
DECAY 1023 8.252000e-04 # wzp
DECAY 1 0.000000e+00 # d : 0.0
DECAY 2 0.000000e+00 # u : 0.0
DECAY 3 0.000000e+00 # s : 0.0
DECAY 4 0.000000e+00 # c : 0.0
DECAY 5 0.000000e+00 # b : 0.0
DECAY 11 0.000000e+00 # e- : 0.0
DECAY 12 0.000000e+00 # ve : 0.0
DECAY 13 0.000000e+00 # m- : 0.0
DECAY 14 0.000000e+00 # vm : 0.0
DECAY 15 0.000000e+00 # tt- : 0.0
DECAY 16 0.000000e+00 # vt : 0.0
DECAY 21 0.000000e+00 # g : 0.0
DECAY 22 0.000000e+00 # a : 0.0
###################################
## INFORMATION FOR QNUMBERS 1023
###################################
BLOCK QNUMBERS 1023 #  zp
      1 0 # 3 times electric charge
      2 3 # number of spin states (2s+1)
      3 1 # colour rep (1: singlet, 3: triplet, 8: octet)
      4 0 # particle/antiparticle distinction (0=own anti)
###################################
## INFORMATION FOR QNUMBERS 35
###################################
BLOCK QNUMBERS 35 #  hs
      1 0 # 3 times electric charge
      2 1 # number of spin states (2s+1)
      3 1 # colour rep (1: singlet, 3: triplet, 8: octet)
      4 0 # particle/antiparticle distinction (0=own anti)
</slha>
<MGGenerationInfo>
#  Number of Events        :       1000
#  Integrated weight (pb)  :       4.65274848e-10
</MGGenerationInfo>
</header>
<init>
-11 11 1.200000e+02 1.200000e+02 0 0 0 0 -4 1
4.652748e-10 3.208139e-12 4.652748e-10 1
<generator name='MadGraph5_aMC@NLO' version='3.4.1'>please cite 1405.0301 </generator>
</init>
<event>
10      1 +4.6527485e-10 2.40000000e+02 7.81860800e-03 1.03012300e-01
      -11 -1    0    0    0    0 +0.0000000000e+00 +0.0000000000e+00 +1.2000000000e+02 1.2000000000e+02 0.0000000000e+00 0.0000e+00 1.0000e+00
       11 -1    0    0    0    0 -0.0000000000e+00 -0.0000000000e+00 -1.2000000000e+02 1.2000000000e+02 0.0000000000e+00 0.0000e+00 -1.0000e+00
       23  2    1    2    0    0 +3.3095157627e+01 +3.6260339320e+01 -1.6851322344e+01 1.0466039920e+02 9.0883059092e+01 0.0000e+00 0.0000e+00
       25  2    1    2    0    0 -3.3095157627e+01 -3.6260339320e+01 +1.6851322344e+01 1.3533960080e+02 1.2499095493e+02 0.0000e+00 0.0000e+00
      -13  1    3    3    0    0 +5.2957712012e+01 -6.9420839653e+00 -1.9937561301e+01 5.7010684454e+01 0.0000000000e+00 0.0000e+00 -1.0000e+00
       13  1    3    3    0    0 -1.9862554384e+01 +4.3202423286e+01 +3.0862389578e+00 4.7649714745e+01 0.0000000000e+00 0.0000e+00 1.0000e+00
        5  1    4    4  501    0 +3.6007359031e+00 -4.6738208611e+01 -1.7368538042e+01 5.0211368802e+01 4.7000000000e+00 0.0000e+00 1.0000e+00
       -5  1    4    4    0  501 -1.4917767950e+01 -2.2671713421e+01 -4.4994662100e+00 2.7908450087e+01 4.7000000000e+00 0.0000e+00 1.0000e+00
        5  1    4    4  502    0 -1.0796036612e+01 +1.9926777370e+01 +1.5112922160e+01 2.7642743697e+01 4.7000000000e+00 0.0000e+00 -1.0000e+00
       -5  1    4    4    0  502 -1.0982088969e+01 +1.3222805343e+01 +2.3606404436e+01 2.9577038216e+01 4.7000000000e+00 0.0000e+00 -1.0000e+00
</event>
<event>
10      1 +4.6527485e-10 2.40000000e+02 7.81860800e-03 1.03012300e-01
      -11 -1    0    0    0    0 +0.0000000000e+00 +0.0000000000e+00 +1.2000000000e+02 1.2000000000e+02 0.0000000000e+00 0.0000e+00 -1.0000e+00
       11 -1    0    0    0    0 -0.0000000000e+00 -0.0000000000e+00 -1.2000000000e+02 1.2000000000e+02 0.0000000000e+00 0.0000e+00 1.0000e+00
       23  2    1    2    0    0 -2.0900040925e+01 -1.6793106014e+01 +4.3355732915e+01 1.0501282634e+02 9.1810424240e+01 0.0000e+00 0.0000e+00
       25  2    1    2    0    0 +2.0900040925e+01 +1.6793106014e+01 -4.3355732915e+01 1.3498717366e+02 1.2499198917e+02 0.0000e+00 0.0000e+00
      -13  1    3    3    0    0 -1.2300872831e+01 -4.9596089874e+01 +1.4693665717e+00 5.1119884989e+01 0.0000000000e+00 0.0000e+00 1.0000e+00
       13  1    3    3    0    0 -8.5991680937e+00 +3.2802983860e+01 +4.1886366343e+01 5.3892941351e+01 0.0000000000e+00 0.0000e+00 -1.0000e+00
        5  1    4    4  501    0 -8.5891025069e-02 -1.1092595656e+00 +2.8599812339e+01 2.9004777191e+01 4.7000000000e+00 0.0000e+00 -1.0000e+00
       -5  1    4    4    0  501 -9.7637708712e+00 -3.5531491019e+00 +7.1604304831e+00 1.3465431849e+01 4.7000000000e+00 0.0000e+00 -1.0000e+00
        5  1    4    4  502    0 +2.0027645198e+01 +3.3710047913e+00 -6.0684682259e+01 6.4165340383e+01 4.7000000000e+00 0.0000e+00 1.0000e+00
       -5  1    4    4    0  502 +1.0722057623e+01 +1.8084509890e+01 -1.8431293478e+01 2.8351624238e+01 4.7000000000e+00 0.0000e+00 1.0000e+00
</event>
<event>
10      1 +4.6527485e-10 2.40000000e+02 7.81860800e-03 1.03012300e-01
      -11 -1    0    0    0    0 +0.0000000000e+00 +0.0000000000e+00 +1.2000000000e+02 1.2000000000e+02 0.0000000000e+00 0.0000e+00 1.0000e+00
       11 -1    0    0    0    0 -0.0000000000e+00 -0.0000000000e+00 -1.2000000000e+02 1.2000000000e+02 0.0000000000e+00 0.0000e+00 -1.0000e+00
       23  2    1    2    0    0 +8.3512111322e+00 +1.9808005540e+01 +4.6432928958e+01 1.0493316395e+02 9.1612511118e+01 0.0000e+00 0.0000e+00
       25  2    1    2    0    0 -8.3512111322e+00 -1.9808005540e+01 -4.6432928958e+01 1.3506683605e+02 1.2499973400e+02 0.0000e+00 0.0000e+00
      -13  1    3    3    0    0 +2.4610980942e+01 +9.5610547232e+00 +6.9829755388e+01 7.4654597232e+01 0.0000000000e+00 0.0000e+00 1.0000e+00
       13  1    3    3    0    0 -1.6259769809e+01 +1.0246950816e+01 -2.3396826430e+01 3.0278566714e+01 0.0000000000e+00 0.0000e+00 -1.0000e+00
        5  1    4    4  501    0 -9.1610172657e+00 -7.7829494657e+00 -2.3350231517e+00 1.3116435219e+01 4.7000000000e+00 0.0000e+00 -1.0000e+00
       -5  1    4    4    0  502 -1.8267700083e+01 +3.7284348615e+01 -4.4466340597e+01 6.1017841359e+01 4.7000000000e+00 0.0000e+00 -1.0000e+00
        5  1    4    4  502    0 -1.7772347826e+00 +1.6617415048e+00 -1.8739750748e+00 5.6144216872e+00 4.7000000000e+00 0.0000e+00 -1.0000e+00
       -5  1    4    4    0  501 +2.0854740999e+01 -5.0971146194e+01 +2.2424098653e+00 5.5318137789e+01 4.7000000000e+00 0.0000e+00 -1.0000e+00
</event>
<event>
10      1 +4.6527485e-10 2.40000000e+02 7.81860800e-03 1.03012300e-01
      -11 -1    0    0    0    0 +0.0000000000e+00 +0.0000000000e+00 +1.2000000000e+02 1.2000000000e+02 0.0000000000e+00 0.0000e+00 1.0000e+00
       11 -1    0    0    0    0 -0.0000000000e+00 -0.0000000000e+00 -1.2000000000e+02 1.2000000000e+02 0.0000000000e+00 0.0000e+00 -1.0000e+00
       23  2    1    2    0    0 -2.9632043635e+01 +2.8580177788e+01 -2.7624629842e+01 1.0552885133e+02 9.3157574664e+01 0.0000e+00 0.0000e+00
       25  2    1    2    0    0 +2.9632043635e+01 -2.8580177788e+01 +2.7624629842e+01 1.3447114867e+02 1.2499794029e+02 0.0000e+00 0.0000e+00
      -11  1    3    3    0    0 +2.7223285398e+01 +3.8624440288e+00 +1.4000610851e+01 3.0855191556e+01 0.0000000000e+00 0.0000e+00 1.0000e+00
       11  1    3    3    0    0 -5.6855329033e+01 +2.4717733759e+01 -4.1625240693e+01 7.4673659776e+01 0.0000000000e+00 0.0000e+00 -1.0000e+00
        5  1    4    4  501    0 +3.8601870227e-01 -1.1896623602e+01 -9.5379619025e+00 1.5960619688e+01 4.7000000000e+00 0.0000e+00 -1.0000e+00
       -5  1    4    4    0  502 -2.4542629445e+01 -7.6359438940e+00 +4.8024392224e+01 5.4672484375e+01 4.7000000000e+00 0.0000e+00 1.0000e+00
        5  1    4    4  502    0 +3.3600466939e+00 -4.3138315328e+00 +6.8788179185e+00 9.9652994052e+00 4.7000000000e+00 0.0000e+00 1.0000e+00
       -5  1    4    4    0  501 +5.0428607684e+01 -4.7337787593e+00 -1.7740618398e+01 5.3872745200e+01 4.7000000000e+00 0.0000e+00 -1.0000e+00
</event>
<event>
10      1 +4.6527485e-10 2.40000000e+02 7.81860800e-03 1.03012300e-01
      -11 -1    0    0    0    0 +0.0000000000e+00 +0.0000000000e+00 +1.2000000000e+02 1.2000000000e+02 0.0000000000e+00 0.0000e+00 1.0000e+00
       11 -1    0    0    0    0 -0.0000000000e+00 -0.0000000000e+00 -1.2000000000e+02 1.2000000000e+02 0.0000000000e+00 0.0000e+00 -1.0000e+00
       23  2    1    2    0    0 +3.6609381138e+01 -2.4713921916e+01 -3.0077344653e+01 1.0405512193e+02 8.9284920420e+01 0.0000e+00 0.0000e+00
       25  2    1    2    0    0 -3.6609381138e+01 +2.4713921916e+01 +3.0077344653e+01 1.3594487807e+02 1.2500135395e+02 0.0000e+00 0.0000e+00
      -11  1    3    3    0    0 +1.3867734877e+01 +5.7620939612e+00 +2.9658169731e+01 3.3243387752e+01 0.0000000000e+00 0.0000e+00 1.0000e+00
       11  1    3    3    0    0 +2.2741646261e+01 -3.0476015877e+01 -5.9735514383e+01 7.0811734177e+01 0.0000000000e+00 0.0000e+00 -1.0000e+00
        5  1    4    4  501    0 -1.1656683819e+01 +3.5361367725e+01 +2.8559446341e-01 3.7529670519e+01 4.7000000000e+00 0.0000e+00 -1.0000e+00
       -5  1    4    4    0  501 -3.4995888072e+01 +2.9986471366e+01 +1.8689926562e+01 4.9953017945e+01 4.7000000000e+00 0.0000e+00 -1.0000e+00
        5  1    4    4  502    0 +1.5332090857e+01 -2.9816816599e+01 +5.1991015589e+00 3.4252535953e+01 4.7000000000e+00 0.0000e+00 -1.0000e+00
       -5  1    4    4    0  502 -5.2889001048e+00 -1.0817100576e+01 +5.9027220685e+00 1.4209653655e+01 4.7000000000e+00 0.0000e+00 -1.0000e+00
</event>
<event>
10      1 +4.6527485e-10 2.40000000e+02 7.81860800e-03 1.03012300e-01
      -11 -1    0    0    0    0 +0.0000000000e+00 +0.0000000000e+00 +1.2000000000e+02 1.2000000000e+02 0.0000000000e+00 0.0000e+00 1.0000e+00
       11 -1    0    0    0    0 -0.0000000000e+00 -0.0000000000e+00 -1.2000000000e+02 1.2000000000e+02 0.0000000000e+00 0.0000e+00 -1.0000e+00
       23  2    1    2    0    0 -5.4175779738e+01 +1.7248203391e+01 -8.4148371525e+00 1.0242007209e+02 8.4773498527e+01 0.0000e+00 0.0000e+00
       25  2    1    2    0    0 +5.4175779738e+01 -1.7248203391e+01 +8.4148371525e+00 1.3757992791e+02 1.2499964579e+02 0.0000e+00 0.0000e+00
      -13  1    3    3    0    0 -4.8640557115e+01 -2.3749782603e+01 -2.2639582919e+01 5.8672878614e+01 0.0000000000e+00 0.0000e+00 1.0000e+00
       13  1    3    3    0    0 -5.5352226237e+00 +4.0997985994e+01 +1.4224745767e+01 4.3747193477e+01 0.0000000000e+00 0.0000e+00 -1.0000e+00
        5  1    4    4  501    0 +2.9096370010e+01 +3.4608698209e+00 -4.4314576748e+00 3.0005069318e+01 4.7000000000e+00 0.0000e+00 -1.0000e+00
       -5  1    4    4    0  502 -1.7672202163e+00 -7.1068582642e+00 +1.0417566244e+01 1.3573731547e+01 4.7000000000e+00 0.0000e+00 1.0000e+00
        5  1    4    4  502    0 -2.5186022344e+01 -1.9494695733e+00 +2.5053927089e+01 3.5887677770e+01 4.7000000000e+00 0.0000e+00 1.0000e+00
       -5  1    4    4    0  501 +5.2032652289e+01 -1.1652745374e+01 -2.2625198506e+01 5.8113449273e+01 4.7000000000e+00 0.0000e+00 -1.0000e+00
</event>
<event>
10      1 +4.6527485e-10 2.40000000e+02 7.81860800e-03 1.03012300e-01
      -11 -1    0    0    0    0 +0.0000000000e+00 +0.0000000000e+00 +1.2000000000e+02 1.2000000000e+02 0.0000000000e+00 0.0000e+00 -1.0000e+00
       11 -1    0    0    0    0 -0.0000000000e+00 -0.0000000000e+00 -1.2000000000e+02 1.2000000000e+02 0.0000000000e+00 0.0000e+00 1.0000e+00
       23  2    1    2    0    0 -1.7780153659e+01 +1.8675458069e+01 +4.5568103245e+01 1.0448175931e+02 9.0416145670e+01 0.0000e+00 0.0000e+00
       25  2    1    2    0    0 +1.7780153659e+01 -1.8675458069e+01 -4.5568103245e+01 1.3551824069e+02 1.2499533962e+02 0.0000e+00 0.0000e+00
      -11  1    3    3    0    0 +8.9942350263e-01 +2.6911309746e+01 -2.1448495112e+01 3.4424780282e+01 0.0000000000e+00 0.0000e+00 1.0000e+00
       11  1    3    3    0    0 -1.8679577162e+01 -8.2358516771e+00 +6.7016598357e+01 7.0056979032e+01 0.0000000000e+00 0.0000e+00 -1.0000e+00
        5  1    4    4  501    0 -3.6398991513e+00 -3.9137508330e+00 -7.2650101941e+00 1.0170382713e+01 4.7000000000e+00 0.0000e+00 -1.0000e+00
       -5  1    4    4    0  501 -1.9593809607e+01 -1.3556387512e+01 -3.0963313651e+01 3.9351109381e+01 4.7000000000e+00 0.0000e+00 -1.0000e+00
        5  1    4    4  502    0 -1.1128350468e+01 +4.2017705750e+00 -2.6949256997e+01 2.9830311979e+01 4.7000000000e+00 0.0000e+00 -1.0000e+00
       -5  1    4    4    0  502 +5.2142212886e+01 -5.4070902996e+00 +1.9609477596e+01 5.6166436612e+01 4.7000000000e+00 0.0000e+00 -1.0000e+00
</event>
<event>
10      1 +4.6527485e-10 2.40000000e+02 7.81860800e-03 1.03012300e-01
      -11 -1    0    0    0    0 +0.0000000000e+00 +0.0000000000e+00 +1.2000000000e+02 1.2000000000e+02 0.0000000000e+00 0.0000e+00 1.0000e+00
       11 -1    0    0    0    0 -0.0000000000e+00 -0.0000000000e+00 -1.2000000000e+02 1.2000000000e+02 0.0000000000e+00 0.0000e+00 -1.0000e+00
       23  2    1    2    0    0 -3.3992162083e+01 -2.8336528893e+01 -1.8821358422e+01 1.0606626189e+02 9.4537730170e+01 0.0000e+00 0.0000e+00
       25  2    1    2    0    0 +3.3992162083e+01 +2.8336528893e+01 +1.8821358422e+01 1.3393373811e+02 1.2500230685e+02 0.0000e+00 0.0000e+00
      -13  1    3    3    0    0 -3.6906559839e+01 +2.8171708031e+01 -1.7029819684e+01 4.9454565522e+01 0.0000000000e+00 0.0000e+00 -1.0000e+00
       13  1    3    3    0    0 +2.9143977563e+00 -5.6508236924e+01 -1.7915387381e+00 5.6611696368e+01 0.0000000000e+00 0.0000e+00 1.0000e+00
        5  1    4    4  501    0 +7.9796719787e+00 +4.3404006737e+01 +1.1567127707e+01 4.5863617488e+01 4.7000000000e+00 0.0000e+00 -1.0000e+00
       -5  1    4    4    0  502 +1.8137522826e+01 -2.1170767169e+01 -1.4218699660e+00 2.8306939626e+01 4.7000000000e+00 0.0000e+00 -1.0000e+00
        5  1    4    4  502    0 +8.2838090177e+00 -2.5452895518e+01 +5.1744844018e+00 2.7664718884e+01 4.7000000000e+00 0.0000e+00 -1.0000e+00
       -5  1    4    4    0  501 -4.0884173919e-01 +3.1556184843e+01 +3.5016162797e+00 3.2098462112e+01 4.7000000000e+00 0.0000e+00 -1.0000e+00
</event>
<event>
10      1 +4.6527485e-10 2.40000000e+02 7.81860800e-03 1.03012300e-01
      -11 -1    0    0    0    0 +0.0000000000e+00 +0.0000000000e+00 +1.2000000000e+02 1.2000000000e+02 0.0000000000e+00 0.0000e+00 1.0000e+00
       11 -1    0    0    0    0 -0.0000000000e+00 -0.0000000000e+00 -1.2000000000e+02 1.2000000000e+02 0.0000000000e+00 0.0000e+00 -1.0000e+00
       23  2    1    2    0    0 +4.8938257965e+01 +2.7179816132e+01 -8.7887315973e+00 1.0275601255e+02 8.5719664110e+01 0.0000e+00 0.0000e+00
       25  2    1    2    0    0 -4.8938257965e+01 -2.7179816132e+01 +8.7887315973e+00 1.3724398745e+02 1.2499989916e+02 0.0000e+00 0.0000e+00
      -11  1    3    3    0    0 -1.6152325854e+01 -8.1443021261e+00 -2.0979535583e+01 2.7701411533e+01 0.0000000000e+00 0.0000e+00 -1.0000e+00
       11  1    3    3    0    0 +6.5090583818e+01 +3.5324118258e+01 +1.2190803986e+01 7.5054601021e+01 0.0000000000e+00 0.0000e+00 1.0000e+00
        5  1    4    4  501    0 -1.6806793362e-01 -1.3834354341e+00 -1.3548422071e+00 5.0860336056e+00 4.7000000000e+00 0.0000e+00 1.0000e+00
       -5  1    4    4    0  502 -3.8689290128e+01 -1.6230999666e+01 +9.4695218780e+00 4.3267405346e+01 4.7000000000e+00 0.0000e+00 -1.0000e+00
        5  1    4    4  502    0 -4.1895348730e+01 -1.9194610128e+01 +1.9661906042e+01 5.0322299753e+01 4.7000000000e+00 0.0000e+00 -1.0000e+00
       -5  1    4    4    0  501 +3.1814448827e+01 +9.6292290957e+00 -1.8987854116e+01 3.8568248743e+01 4.7000000000e+00 0.0000e+00 -1.0000e+00
</event>
<event>
10      1 +4.6527485e-10 2.40000000e+02 7.81860800e-03 1.03012300e-01
      -11 -1    0    0    0    0 +0.0000000000e+00 +0.0000000000e+00 +1.2000000000e+02 1.2000000000e+02 0.0000000000e+00 0.0000e+00 -1.0000e+00
       11 -1    0    0    0    0 -0.0000000000e+00 -0.0000000000e+00 -1.2000000000e+02 1.2000000000e+02 0.0000000000e+00 0.0000e+00 1.0000e+00
       23  2    1    2    0    0 +1.9112191209e+00 -2.5788239329e+01 -4.3383377001e+01 1.0518870250e+02 9.2270578664e+01 0.0000e+00 0.0000e+00
       25  2    1    2    0    0 -1.9112191209e+00 +2.5788239329e+01 +4.3383377001e+01 1.3481129750e+02 1.2499312976e+02 0.0000e+00 0.0000e+00
      -13  1    3    3    0    0 -1.2922633204e+01 +2.2601854462e+01 -4.7751462711e+01 5.4387870569e+01 0.0000000000e+00 0.0000e+00 1.0000e+00
       13  1    3    3    0    0 +1.4833852325e+01 -4.8390093791e+01 +4.3680857102e+00 5.0800831929e+01 0.0000000000e+00 0.0000e+00 -1.0000e+00
        5  1    4    4  501    0 +1.6466993685e+00 -3.2296507345e+00 -2.4431419522e+00 6.4188165012e+00 4.7000000000e+00 0.0000e+00 1.0000e+00
       -5  1    4    4    0  501 +3.3536250556e+01 -2.9077969357e+01 +2.6092170258e+01 5.1702028510e+01 4.7000000000e+00 0.0000e+00 1.0000e+00
        5  1    4    4  502    0 -2.3268174578e+01 +5.2584480397e+01 +1.0769828883e+01 5.8690840350e+01 4.7000000000e+00 0.0000e+00 -1.0000e+00
       -5  1    4    4    0  502 -1.3825994468e+01 +5.5113790232e+00 +8.9645198123e+00 1.7999612141e+01 4.7000000000e+00 0.0000e+00 -1.0000e+00
</event>
<event>
10      1 +4.6527485e-10 2.40000000e+02 7.81860800e-03 1.03012300e-01
      -11 -1    0    0    0    0 +0.0000000000e+00 +0.0000000000e+00 +1.2000000000e+02 1.2000000000e+02 0.0000000000e+00 0.0000e+00 -1.0000e+00
       11 -1    0    0    0    0 -0.0000000000e+00 -0.0000000000e+00 -1.2000000000e+02 1.2000000000e+02 0.0000000000e+00 0.0000e+00 1.0000e+00
       23  2    1    2    0    0 +3.2051236158e+01 +4.3314838189e+01 +1.8375427788e+00 1.0386788902e+02 8.8778966311e+01 0.0000e+00 0.0000e+00
       25  2    1    2    0    0 -3.2051236158e+01 -4.3314838189e+01 -1.8375427788e+00 1.3613211098e+02 1.2500047252e+02 0.0000e+00 0.0000e+00
      -11  1    3    3    0    0 +1.3795587933e+01 -1.7343373454e+01 +2.7675884041e+01 3.5455118201e+01 0.0000000000e+00 0.0000e+00 -1.0000e+00
       11  1    3    3    0    0 +1.8255648225e+01 +6.0658211643e+01 -2.5838341262e+01 6.8412770818e+01 0.0000000000e+00 0.0000e+00 1.0000e+00
        5  1    4    4  501    0 +1.3061271364e+01 -1.2267912056e+00 -1.9290159677e+00 1.4068153002e+01 4.7000000000e+00 0.0000e+00 -1.0000e+00
       -5  1    4    4    0  502 -5.0369589122e+01 -3.4377951825e+01 -1.3469544352e+01 6.2629527421e+01 4.7000000000e+00 0.0000e+00 -1.0000e+00
        5  1    4    4  502    0 -1.4560272260e+01 -2.6164943561e+01 +5.6294967305e+00 3.0828347884e+01 4.7000000000e+00 0.0000e+00 -1.0000e+00
       -5  1    4    4    0  501 +1.9817353860e+01 +1.8454848403e+01 +7.9315208101e+00 2.8606082674e+01 4.7000000000e+00 0.0000e+00 1.0000e+00
</event>
<event>
10      1 +4.6527485e-10 2.40000000e+02 7.81860800e-03 1.03012300e-01
      -11 -1    0    0    0    0 +0.0000000000e+00 +0.0000000000e+00 +1.2000000000e+02 1.2000000000e+02 0.0000000000e+00 0.0000e+00 -1.0000e+00
       11 -1    0    0    0    0 -0.0000000000e+00 -0.0000000000e+00 -1.2000000000e+02 1.2000000000e+02 0.0000000000e+00 0.0000e+00 1.0000e+00
       23  2    1    2    0    0 -3.4450134940e+01 -2.8018918330e+01 +3.0133248733e+01 1.0396785109e+02 8.9047345827e+01 0.0000e+00 0.0000e+00
       25  2    1    2    0    0 +3.4450134940e+01 +2.8018918330e+01 -3.0133248733e+01 1.3603214891e+02 1.2499944511e+02 0.0000e+00 0.0000e+00
      -13  1    3    3    0    0 -4.0138325703e+01 -1.3592178318e+01 -2.3278785369e+01 4.8350122543e+01 0.0000000000e+00 0.0000e+00 1.0000e+00
       13  1    3    3    0    0 +5.6881907621e+00 -1.4426740012e+01 +5.3412034103e+01 5.5617728545e+01 0.0000000000e+00 0.0000e+00 -1.0000e+00
        5  1    4    4  501    0 -6.7129852178e+00 +1.5465939488e+01 -2.3219744944e+00 1.7656189293e+01 4.7000000000e+00 0.0000e+00 1.0000e+00
       -5  1    4    4    0  502 +1.5095808174e+01 +2.0051345233e+00 -1.6403607072e-01 1.5938033025e+01 4.7000000000e+00 0.0000e+00 -1.0000e+00
        5  1    4    4  502    0 +5.8818492989e+01 +1.0622529676e+00 -3.2983314438e+01 6.7607192888e+01 4.7000000000e+00 0.0000e+00 -1.0000e+00
       -5  1    4    4    0  501 -3.2751181005e+01 +9.4855913503e+00 +5.3360762702e+00 3.4830733705e+01 4.7000000000e+00 0.0000e+00 1.0000e+00
</event>
<event>
10      1 +4.6527485e-10 2.40000000e+02 7.81860800e-03 1.03012300e-01
      -11 -1    0    0    0    0 +0.0000000000e+00 +0.0000000000e+00 +1.2000000000e+02 1.2000000000e+02 0.0000000000e+00 0.0000e+00 1.0000e+00
       11 -1    0    0    0    0 -0.0000000000e+00 -0.0000000000e+00 -1.2000000000e+02 1.2000000000e+02 0.0000000000e+00 0.0000e+00 -1.0000e+00
       23  2    1    2    0    0 -2.7841885398e+01 +1.3301476841e+01 +4.2098889102e+01 1.0454813230e+02 9.0586398729e+01 0.0000e+00 0.0000e+00
       25  2    1    2    0    0 +2.7841885398e+01 -1.3301476841e+01 -4.2098889102e+01 1.3545186770e+02 1.2499116821e+02 0.0000e+00 0.0000e+00
      -13  1    3    3    0    0 -1.9543140766e+01 +4.4534648946e+01 +5.1556749572e+01 7.0875720343e+01 0.0000000000e+00 0.0000e+00 1.0000e+00
       13  1    3    3    0    0 -8.2987446315e+00 -3.1233172105e+01 -9.4578604696e+00 3.3672411955e+01 0.0000000000e+00 0.0000e+00 -1.0000e+00
        5  1    4    4  501    0 +2.1537795213e+01 -2.9233795518e+01 -4.7827732763e+01 6.0233491052e+01 4.7000000000e+00 0.0000e+00 -1.0000e+00
       -5  1    4    4    0  501 +2.2544450256e+01 -6.9835596098e+00 -2.0864571968e+01 3.1850317197e+01 4.7000000000e+00 0.0000e+00 -1.0000e+00
        5  1    4    4  502    0 -1.0080719657e+01 +2.2854067555e+00 +4.6539803568e+00 1.2271655390e+01 4.7000000000e+00 0.0000e+00 1.0000e+00
       -5  1    4    4    0  502 -6.1596404136e+00 +2.0630471531e+01 +2.1939435272e+01 3.1096404063e+01 4.7000000000e+00 0.0000e+00 1.0000e+00
</event>
<event>
10      1 +4.6527485e-10 2.40000000e+02 7.81860800e-03 1.03012300e-01
      -11 -1    0    0    0    0 +0.0000000000e+00 +0.0000000000e+00 +1.2000000000e+02 1.2000000000e+02 0.0000000000e+00 0.0000e+00 -1.0000e+00
       11 -1    0    0    0    0 -0.0000000000e+00 -0.0000000000e+00 -1.2000000000e+02 1.2000000000e+02 0.0000000000e+00 0.0000e+00 1.0000e+00
       23  2    1    2    0    0 +3.1974081403e+00 -4.4088118335e+01 -3.1527562057e+01 1.0371820250e+02 8.8371334517e+01 0.0000e+00 0.0000e+00
       25  2    1    2    0    0 -3.1974081403e+00 +4.4088118335e+01 +3.1527562057e+01 1.3628179750e+02 1.2499902224e+02 0.0000e+00 0.0000e+00
      -11  1    3    3    0    0 +8.0022183988e+00 +3.7977196741e-01 -5.3352537066e+01 5.3950652799e+01 0.0000000000e+00 0.0000e+00 1.0000e+00
       11  1    3    3    0    0 -4.8048102585e+00 -4.4467890302e+01 +2.1824975009e+01 4.9767549706e+01 0.0000000000e+00 0.0000e+00 -1.0000e+00
        5  1    4    4  501    0 -2.4391354420e+01 -6.8113769401e+00 +1.7687637406e+01 3.1245408355e+01 4.7000000000e+00 0.0000e+00 -1.0000e+00
       -5  1    4    4    0  502 -2.7043587732e+00 +4.4417456496e+00 +6.4121437764e+00 9.4999078205e+00 4.7000000000e+00 0.0000e+00 1.0000e+00
        5  1    4    4  502    0 +3.1418125022e+01 +6.4820306250e+01 -3.7472188427e+00 7.2283485882e+01 4.7000000000e+00 0.0000e+00 1.0000e+00
       -5  1    4    4    0  501 -7.5198199694e+00 -1.8362556624e+01 +1.1174999718e+01 2.3252995438e+01 4.7000000000e+00 0.0000e+00 -1.0000e+00
</event>
<event>
10      1 +4.6527485e-10 2.40000000e+02 7.81860800e-03 1.03012300e-01
      -11 -1    0    0    0    0 +0.0000000000e+00 +0.0000000000e+00 +1.2000000000e+02 1.2000000000e+02 0.0000000000e+00 0.0000e+00 1.0000e+00
       11 -1    0    0    0    0 -0.0000000000e+00 -0.0000000000e+00 -1.2000000000e+02 1.2000000000e+02 0.0000000000e+00 0.0000e+00 -1.0000e+00
       23  2    1    2    0    0 +4.1575282204e+01 -4.6499839334e+00 -3.1722649503e+01 1.0442435468e+02 9.0266233547e+01 0.0000e+00 0.0000e+00
       25  2    1    2    0    0 -4.1575282204e+01 +4.6499839334e+00 +3.1722649503e+01 1.3557564532e+02 1.2499721065e+02 0.0000e+00 0.0000e+00
      -11  1    3    3    0    0 +1.7786963343e+01 +3.8253296038e+01 +5.9063627008e+00 4.2597838479e+01 0.0000000000e+00 0.0000e+00 1.0000e+00
       11  1    3    3    0    0 +2.3788318861e+01 -4.2903279972e+01 -3.7629012204e+01 6.1826516205e+01 0.0000000000e+00 0.0000e+00 -1.0000e+00
        5  1    4    4  501    0 +1.0062986448e+01 +2.8563603228e+00 -1.4833489063e+00 1.1563425726e+01 4.7000000000e+00 0.0000e+00 1.0000e+00
       -5  1    4    4    0  502 -7.7213922042e+01 -1.3079830940e+01 +1.1826445380e+01 7.9341203324e+01 4.7000000000e+00 0.0000e+00 -1.0000e+00
        5  1    4    4  502    0 -3.9507686316e+00 +2.8019587948e+00 +1.9451752645e+00 7.0237634270e+00 4.7000000000e+00 0.0000e+00 -1.0000e+00
       -5  1    4    4    0  501 +2.9526422022e+01 +1.2071495756e+01 +1.9434377765e+01 3.7647252839e+01 4.7000000000e+00 0.0000e+00 1.0000e+00
</event>
<event>
10      1 +4.6527485e-10 2.40000000e+02 7.81860800e-03 1.03012300e-01
      -11 -1    0    0    0    0 +0.0000000000e+00 +0.0000000000e+00 +1.2000000000e+02 1.2000000000e+02 0.0000000000e+00 0.0000e+00 -1.0000e+00
       11 -1    0    0    0    0 -0.0000000000e+00 -0.0000000000e+00 -1.2000000000e+02 1.2000000000e+02 0.0000000000e+00 0.0000e+00 1.0000e+00
       23  2    1    2    0    0 +3.3165881339e+01 -3.7875166976e+01 -1.6626296053e+01 1.0422126023e+02 8.9728108221e+01 0.0000e+00 0.0000e+00
       25  2    1    2    0    0 -3.3165881339e+01 +3.7875166976e+01 +1.6626296053e+01 1.3577873977e+02 1.2499971398e+02 0.0000e+00 0.0000e+00
      -11  1    3    3    0    0 +1.3278151911e+01 -6.5181808228e+01 +1.1184893548e-01 6.6520597955e+01 0.0000000000e+00 0.0000e+00 1.0000e+00
       11  1    3    3    0    0 +1.9887729428e+01 +2.7306641252e+01 -1.6738144988e+01 3.7700662275e+01 0.0000000000e+00 0.0000e+00 -1.0000e+00
        5  1    4    4  501    0 +1.5398155518e+00 -3.8969334273e-01 +5.5421687969e-01 4.9919985161e+00 4.7000000000e+00 0.0000e+00 -1.0000e+00
       -5  1    4    4    0  501 -5.8907162961e+01 -2.1259855104e+01 +5.4768754841e+00 6.3040633343e+01 4.7000000000e+00 0.0000e+00 -1.0000e+00
        5  1    4    4  502    0 +2.1529075388e+01 +3.2162737509e+01 +7.2377649982e+00 3.9653726348e+01 4.7000000000e+00 0.0000e+00 1.0000e+00
       -5  1    4    4    0  502 +2.6723906822e+00 +2.7361977914e+01 +3.3574386908e+00 2.8092381563e+01 4.7000000000e+00 0.0000e+00 1.0000e+00
</event>
<event>
10      1 +4.6527485e-10 2.40000000e+02 7.81860800e-03 1.03012300e-01
      -11 -1    0    0    0    0 +0.0000000000e+00 +0.0000000000e+00 +1.2000000000e+02 1.2000000000e+02 0.0000000000e+00 0.0000e+00 -1.0000e+00
       11 -1    0    0    0    0 -0.0000000000e+00 -0.0000000000e+00 -1.2000000000e+02 1.2000000000e+02 0.0000000000e+00 0.0000e+00 1.0000e+00
       23  2    1    2    0    0 -2.6543210318e+01 -3.4731862019e+01 -2.4706796365e+01 1.0529183108e+02 9.2547823594e+01 0.0000e+00 0.0000e+00
       25  2    1    2    0    0 +2.6543210318e+01 +3.4731862019e+01 +2.4706796365e+01 1.3470816892e+02 1.2500008294e+02 0.0000e+00 0.0000e+00
      -13  1    3    3    0    0 -4.7062372192e+01 -6.8447800373e+00 -4.4737085375e+01 6.5292608295e+01 0.0000000000e+00 0.0000e+00 1.0000e+00
       13  1    3    3    0    0 +2.0519161874e+01 -2.7887081982e+01 +2.0030289010e+01 3.9999222783e+01 0.0000000000e+00 0.0000e+00 -1.0000e+00
        5  1    4    4  501    0 +3.6563689378e+01 +1.0393928613e+01 +2.9697409765e+01 4.8466104441e+01 4.7000000000e+00 0.0000e+00 -1.0000e+00
       -5  1    4    4    0  501 +3.0158277020e+01 -1.1743167095e+00 +9.0650834490e+00 3.1861676517e+01 4.7000000000e+00 0.0000e+00 -1.0000e+00
        5  1    4    4  502    0 -3.5049203570e+01 +1.3678341776e+01 -1.4630372864e+01 4.0640884768e+01 4.7000000000e+00 0.0000e+00 1.0000e+00
       -5  1    4    4    0  502 -5.1295525097e+00 +1.1833908339e+01 +5.7467601416e-01 1.3739503195e+01 4.7000000000e+00 0.0000e+00 1.0000e+00
</event>
<event>
10      1 +4.6527485e-10 2.40000000e+02 7.81860800e-03 1.03012300e-01
      -11 -1    0    0    0    0 +0.0000000000e+00 +0.0000000000e+00 +1.2000000000e+02 1.2000000000e+02 0.0000000000e+00 0.0000e+00 1.0000e+00
       11 -1    0    0    0    0 -0.0000000000e+00 -0.0000000000e+00 -1.2000000000e+02 1.2000000000e+02 0.0000000000e+00 0.0000e+00 -1.0000e+00
       23  2    1    2    0    0 -4.5751999801e+01 -3.5165508093e+01 -3.5342479024e+01 9.7859200470e+01 7.0692813268e+01 0.0000e+00 0.0000e+00
       25  2    1    2    0    0 +4.5751999801e+01 +3.5165508093e+01 +3.5342479024e+01 1.4214079953e+02 1.2500023049e+02 0.0000e+00 0.0000e+00
      -11  1    3    3    0    0 +8.4026845648e+00 -2.8505857961e+01 -3.1278402075e+01 4.3145422496e+01 0.0000000000e+00 0.0000e+00 1.0000e+00
       11  1    3    3    0    0 -5.4154684366e+01 -6.6596501314e+00 -4.0640769491e+00 5.4713777973e+01 0.0000000000e+00 0.0000e+00 -1.0000e+00
        5  1    4    4  501    0 -9.7265722549e+00 -3.1489431729e+00 -1.1930870349e+01 1.6399930433e+01 4.7000000000e+00 0.0000e+00 -1.0000e+00
       -5  1    4    4    0  501 -1.2872468894e+01 +1.9668817858e-01 +6.2735180311e+00 1.5072696181e+01 4.7000000000e+00 0.0000e+00 -1.0000e+00
        5  1    4    4  502    0 +1.8176137954e+01 -6.5500664735e+00 +3.8440309640e+01 4.3278433046e+01 4.7000000000e+00 0.0000e+00 1.0000e+00
       -5  1    4    4    0  502 +5.0174902997e+01 +4.4667829561e+01 +2.5595217024e+00 6.7389739870e+01 4.7000000000e+00 0.0000e+00 1.0000e+00
</event>
<event>
10      1 +4.6527485e-10 2.40000000e+02 7.81860800e-03 1.03012300e-01
      -11 -1    0    0    0    0 +0.0000000000e+00 +0.0000000000e+00 +1.2000000000e+02 1.2000000000e+02 0.0000000000e+00 0.0000e+00 1.0000e+00
       11 -1    0    0    0    0 -0.0000000000e+00 -0.0000000000e+00 -1.2000000000e+02 1.2000000000e+02 0.0000000000e+00 0.0000e+00 -1.0000e+00
       23  2    1    2    0    0 -3.0932099534e+01 -1.9589156103e+01 +3.8918352506e+00 1.0971198590e+02 1.0334913473e+02 0.0000e+00 0.0000e+00
       25  2    1    2    0    0 +3.0932099534e+01 +1.9589156103e+01 -3.8918352506e+00 1.3028801410e+02 1.2497715959e+02 0.0000e+00 0.0000e+00
      -11  1    3    3    0    0 +2.2758080803e+01 -4.3025885663e+01 -9.5621921533e+00 4.9604360672e+01 0.0000000000e+00 0.0000e+00 -1.0000e+00
       11  1    3    3    0    0 -5.3690180337e+01 +2.3436729560e+01 +1.3454027404e+01 6.0107625228e+01 0.0000000000e+00 0.0000e+00 1.0000e+00
        5  1    4    4  501    0 +1.0690072355e+01 -5.7875566720e-01 +5.1573839167e+00 1.2778936338e+01 4.7000000000e+00 0.0000e+00 1.0000e+00
       -5  1    4    4    0  502 -2.6437988209e+01 +3.5172859283e+01 +3.0110539792e+00 4.4353733741e+01 4.7000000000e+00 0.0000e+00 1.0000e+00
        5  1    4    4  502    0 -5.9761627243e+00 +3.6276584893e+00 +9.8600832965e+00 1.2968641781e+01 4.7000000000e+00 0.0000e+00 1.0000e+00
       -5  1    4    4    0  501 +5.2656178113e+01 -1.8632606002e+01 -2.1920356443e+01 6.0186702240e+01 4.7000000000e+00 0.0000e+00 1.0000e+00
</event>
<event>
10      1 +4.6527485e-10 2.40000000e+02 7.81860800e-03 1.03012300e-01
      -11 -1    0    0    0    0 +0.0000000000e+00 +0.0000000000e+00 +1.2000000000e+02 1.2000000000e+02 0.0000000000e+00 0.0000e+00 1.0000e+00
       11 -1    0    0    0    0 -0.0000000000e+00 -0.0000000000e+00 -1.2000000000e+02 1.2000000000e+02 0.0000000000e+00 0.0000e+00 -1.0000e+00
       23  2    1    2    0    0 -2.9692649945e+01 +3.3145101108e+01 -3.0361749072e+01 1.0388284078e+02 8.8823181741e+01 0.0000e+00 0.0000e+00
       25  2    1    2    0    0 +2.9692649945e+01 -3.3145101108e+01 +3.0361749072e+01 1.3611715922e+02 1.2500317611e+02 0.0000e+00 0.0000e+00
      -13  1    3    3    0    0 -4.5984771688e+00 +1.1863941201e+01 +3.1412906746e+01 3.3892031561e+01 0.0000000000e+00 0.0000e+00 1.0000e+00
       13  1    3    3    0    0 -2.5094172776e+01 +2.1281159907e+01 -6.1774655818e+01 6.9990809224e+01 0.0000000000e+00 0.0000e+00 -1.0000e+00
        5  1    4    4  501    0 -3.5846075810e+00 -1.6018918507e+01 -3.2919264617e+00 1.7389132855e+01 4.7000000000e+00 0.0000e+00 1.0000e+00
       -5  1    4    4    0  502 +1.3633152849e+01 +3.0550256281e+01 +1.3743040238e+01 3.6471114192e+01 4.7000000000e+00 0.0000e+00 1.0000e+00
        5  1    4    4  502    0 +3.1314165148e+00 +1.0206258429e+01 +1.8493737936e+01 2.1865082286e+01 4.7000000000e+00 0.0000e+00 1.0000e+00
       -5  1    4    4    0  501 +1.6512688163e+01 -5.7882697311e+01 +1.4168973597e+00 6.0391829882e+01 4.7000000000e+00 0.0000e+00 1.0000e+00
</event>
<event>
10      1 +4.6527485e-10 2.40000000e+02 7.81860800e-03 1.03012300e-01
      -11 -1    0    0    0    0 +0.0000000000e+00 +0.0000000000e+00 +1.2000000000e+02 1.2000000000e+02 0.0000000000e+00 0.0000e+00 1.0000e+00
       11 -1    0    0    0    0 -0.0000000000e+00 -0.0000000000e+00 -1.2000000000e+02 1.2000000000e+02 0.0000000000e+00 0.0000e+00 -1.0000e+00
       23  2    1    2    0    0 +1.4634192748e+00 -3.7221500228e+01 +2.9179859490e+01 1.0634095741e+02 9.5233152563e+01 0.0000e+00 0.0000e+00
       25  2    1    2    0    0 -1.4634192748e+00 +3.7221500228e+01 -2.9179859490e+01 1.3365904259e+02 1.2500277514e+02 0.0000e+00 0.0000e+00
      -11  1    3    3    0    0 +3.9980492815e+01 -4.7224180219e+01 +2.3286621314e+01 6.6112251023e+01 0.0000000000e+00 0.0000e+00 -1.0000e+00
       11  1    3    3    0    0 -3.8517073540e+01 +1.0002679991e+01 +5.8932381754e+00 4.0228706384e+01 0.0000000000e+00 0.0000e+00 1.0000e+00
        5  1    4    4  501    0 +5.1508295516e+00 +4.4591603730e+01 -4.8791631006e+01 6.6465445342e+01 4.7000000000e+00 0.0000e+00 -1.0000e+00
       -5  1    4    4    0  501 +6.6227264705e+00 -4.2438486318e+00 -1.8331859430e+01 2.0494336469e+01 4.7000000000e+00 0.0000e+00 -1.0000e+00
        5  1    4    4  502    0 -1.7852669526e+01 -3.0484227723e+00 +3.4543755430e+01 3.9285770068e+01 4.7000000000e+00 0.0000e+00 1.0000e+00
       -5  1    4    4    0  502 +4.6156942287e+00 -7.7832097704e-02 +3.3998755164e+00 7.4134907146e+00 4.7000000000e+00 0.0000e+00 1.0000e+00
</event>
<event>
10      1 +4.6527485e-10 2.40000000e+02 7.81860800e-03 1.03012300e-01
      -11 -1    0    0    0    0 +0.0000000000e+00 +0.0000000000e+00 +1.2000000000e+02 1.2000000000e+02 0.0000000000e+00 0.0000e+00 1.0000e+00
       11 -1    0    0    0    0 -0.0000000000e+00 -0.0000000000e+00 -1.2000000000e+02 1.2000000000e+02 0.0000000000e+00 0.0000e+00 -1.0000e+00
       23  2    1    2    0    0 +4.3909971293e+01 +1.3807779593e+01 +2.4317651579e+01 1.0459392385e+02 9.0718247183e+01 0.0000e+00 0.0000e+00
       25  2    1    2    0    0 -4.3909971293e+01 -1.3807779593e+01 -2.4317651579e+01 1.3540607615e+02 1.2499886769e+02 0.0000e+00 0.0000e+00
      -11  1    3    3    0    0 +3.5181258929e+01 -3.1022196022e+01 +3.3968764045e+01 5.7913509275e+01 0.0000000000e+00 0.0000e+00 1.0000e+00
       11  1    3    3    0    0 +8.7287123643e+00 +4.4829975614e+01 -9.6511124659e+00 4.6680414575e+01 0.0000000000e+00 0.0000e+00 -1.0000e+00
        5  1    4    4  501    0 -5.1575948327e+01 +3.3820535399e+01 +1.0865895654e+01 6.2801789376e+01 4.7000000000e+00 0.0000e+00 -1.0000e+00
       -5  1    4    4    0  502 -3.5492743286e+00 +1.9913290563e+00 -4.3451236050e+00 7.5850404622e+00 4.7000000000e+00 0.0000e+00 -1.0000e+00
        5  1    4    4  502    0 +7.5806260933e+00 -6.5566051661e+00 -1.5236250944e+01 1.8833170368e+01 4.7000000000e+00 0.0000e+00 1.0000e+00
       -5  1    4    4    0  501 +3.6346252695e+00 -4.3063038882e+01 -1.5602172684e+01 4.6186075943e+01 4.7000000000e+00 0.0000e+00 1.0000e+00
</event>
<event>
10      1 +4.6527485e-10 2.40000000e+02 7.81860800e-03 1.03012300e-01
      -11 -1    0    0    0    0 +0.0000000000e+00 +0.0000000000e+00 +1.2000000000e+02 1.2000000000e+02 0.0000000000e+00 0.0000e+00 1.0000e+00
       11 -1    0    0    0    0 -0.0000000000e+00 -0.0000000000e+00 -1.2000000000e+02 1.2000000000e+02 0.0000000000e+00 0.0000e+00 -1.0000e+00
       23  2    1    2    0    0 -2.6633632730e+01 +6.0714367358e+00 -1.2265479582e+01 1.1146501330e+02 1.0736756709e+02 0.0000e+00 0.0000e+00
       25  2    1    2    0    0 +2.6633632730e+01 -6.0714367358e+00 +1.2265479582e+01 1.2853498670e+02 1.2499835231e+02 0.0000e+00 0.0000e+00
      -11  1    3    3    0    0 -6.0346974241e+01 -1.2464940406e+01 +1.6071800084e+01 6.3682295792e+01 0.0000000000e+00 0.0000e+00 1.0000e+00
       11  1    3    3    0    0 +3.3713341511e+01 +1.8536377142e+01 -2.8337279666e+01 4.7782717506e+01 0.0000000000e+00 0.0000e+00 -1.0000e+00
        5  1    4    4  501    0 +6.6137269249e+01 -2.6390126827e+00 +2.2782026551e+01 7.0158488478e+01 4.7000000000e+00 0.0000e+00 -1.0000e+00
       -5  1    4    4    0  502 -3.6036582641e+01 +3.2968160839e+00 -1.5983801509e+01 3.9838124898e+01 4.7000000000e+00 0.0000e+00 -1.0000e+00
        5  1    4    4  502    0 -5.4757401276e+00 -7.7239869934e+00 +7.4868995288e+00 1.2953276403e+01 4.7000000000e+00 0.0000e+00 -1.0000e+00
       -5  1    4    4    0  501 +2.0086862491e+00 +9.9474685639e-01 -2.0196449887e+00 5.5850969227e+00 4.7000000000e+00 0.0000e+00 -1.0000e+00
</event>
<event>
10      1 +4.6527485e-10 2.40000000e+02 7.81860800e-03 1.03012300e-01
      -11 -1    0    0    0    0 +0.0000000000e+00 +0.0000000000e+00 +1.2000000000e+02 1.2000000000e+02 0.0000000000e+00 0.0000e+00 -1.0000e+00
       11 -1    0    0    0    0 -0.0000000000e+00 -0.0000000000e+00 -1.2000000000e+02 1.2000000000e+02 0.0000000000e+00 0.0000e+00 1.0000e+00
       23  2    1    2    0    0 -3.7941113604e+01 +2.7865074216e+01 -1.8825423224e+01 1.0510480496e+02 9.2068632031e+01 0.0000e+00 0.0000e+00
       25  2    1    2    0    0 +3.7941113604e+01 -2.7865074216e+01 +1.8825423224e+01 1.3489519504e+02 1.2500530638e+02 0.0000e+00 0.0000e+00
      -13  1    3    3    0    0 -6.1337114447e+01 +2.1956799855e+01 -3.6975673390e+01 7.4910233555e+01 0.0000000000e+00 0.0000e+00 1.0000e+00
       13  1    3    3    0    0 +2.3396000843e+01 +5.9082743617e+00 +1.8150250166e+01 3.0194571408e+01 0.0000000000e+00 0.0000e+00 -1.0000e+00
        5  1    4    4  501    0 -2.9490950995e+01 +4.3697632849e+00 +1.1439641454e+01 3.2276406528e+01 4.7000000000e+00 0.0000e+00 -1.0000e+00
       -5  1    4    4    0  501 +6.9096600600e+01 -3.8729508619e+01 -1.1400050566e+01 8.0164619411e+01 4.7000000000e+00 0.0000e+00 1.0000e+00
        5  1    4    4  502    0 +6.7787377511e-01 +3.4327546001e+00 +1.1931395068e+01 1.3292535698e+01 4.7000000000e+00 0.0000e+00 1.0000e+00
       -5  1    4    4    0  502 -2.3424097755e+00 +3.0619165179e+00 +6.8544372675e+00 9.1616334009e+00 4.7000000000e+00 0.0000e+00 -1.0000e+00
</event>
<event>
10      1 +4.6527485e-10 2.40000000e+02 7.81860800e-03 1.03012300e-01
      -11 -1    0    0    0    0 +0.0000000000e+00 +0.0000000000e+00 +1.2000000000e+02 1.2000000000e+02 0.0000000000e+00 0.0000e+00 1.0000e+00
       11 -1    0    0    0    0 -0.0000000000e+00 -0.0000000000e+00 -1.2000000000e+02 1.2000000000e+02 0.0000000000e+00 0.0000e+00 -1.0000e+00
       23  2    1    2    0    0 +3.9620838626e+01 -2.9041418657e+01 -2.3611681381e+01 1.0363275474e+02 8.8142052995e+01 0.0000e+00 0.0000e+00
       25  2    1    2    0    0 -3.9620838626e+01 +2.9041418657e+01 +2.3611681381e+01 1.3636724526e+02 1.2500119692e+02 0.0000e+00 0.0000e+00
      -11  1    3    3    0    0 +3.6658621432e+01 -1.4190432907e+01 +2.9023172845e+01 4.8862741157e+01 0.0000000000e+00 0.0000e+00 1.0000e+00
       11  1    3    3    0    0 +2.9622171943e+00 -1.4850985750e+01 -5.2634854226e+01 5.4770013582e+01 0.0000000000e+00 0.0000e+00 -1.0000e+00
        5  1    4    4  501    0 -1.6731056041e+01 -1.5664382124e+00 -2.3071421333e+01 2.8926846479e+01 4.7000000000e+00 0.0000e+00 1.0000e+00
       -5  1    4    4    0  502 -3.3885944813e+00 +3.0713473445e+01 +2.0379128438e+01 3.7312181650e+01 4.7000000000e+00 0.0000e+00 -1.0000e+00
        5  1    4    4  502    0 -5.2862388161e+00 +1.5624257456e+01 +4.0637408078e+01 4.4108396901e+01 4.7000000000e+00 0.0000e+00 -1.0000e+00
       -5  1    4    4    0  501 -1.4214949288e+01 -1.5729874031e+01 -1.4333433801e+01 2.6019820231e+01 4.7000000000e+00 0.0000e+00 1.0000e+00
</event>
<event>
10      1 +4.6527485e-10 2.40000000e+02 7.81860800e-03 1.03012300e-01
      -11 -1    0    0    0    0 +0.0000000000e+00 +0.0000000000e+00 +1.2000000000e+02 1.2000000000e+02 0.0000000000e+00 0.0000e+00 1.0000e+00
       11 -1    0    0    0    0 -0.0000000000e+00 -0.0000000000e+00 -1.2000000000e+02 1.2000000000e+02 0.0000000000e+00 0.0000e+00 -1.0000e+00
       23  2    1    2    0    0 -2.4604115523e+00 -3.6959610938e+01 -3.8211884214e+01 1.0414133556e+02 8.9516496872e+01 0.0000e+00 0.0000e+00
       25  2    1    2    0    0 +2.4604115523e+00 +3.6959610938e+01 +3.8211884214e+01 1.3585866444e+02 1.2500144856e+02 0.0000e+00 0.0000e+00
      -13  1    3    3    0    0 +6.7522858214e+00 -1.6520418332e+01 +2.8575795175e+01 3.3691150998e+01 0.0000000000e+00 0.0000e+00 1.0000e+00
       13  1    3    3    0    0 -9.2126973737e+00 -2.0439192606e+01 -6.6787679389e+01 7.0450184567e+01 0.0000000000e+00 0.0000e+00 -1.0000e+00
        5  1    4    4  501    0 -4.0033242927e+01 +1.1216918728e+00 -4.0237934519e-01 4.0325806142e+01 4.7000000000e+00 0.0000e+00 -1.0000e+00
       -5  1    4    4    0  502 +2.5878625366e+00 +3.4162721555e+00 +6.5304940688e+00 9.1162108758e+00 4.7000000000e+00 0.0000e+00 1.0000e+00
        5  1    4    4  502    0 +5.3465281430e+01 +2.0868119661e+01 +3.5542500680e+01 6.7671072780e+01 4.7000000000e+00 0.0000e+00 -1.0000e+00
       -5  1    4    4    0  501 -1.3559489487e+01 +1.1553527249e+01 -3.4587311894e+00 1.8745574637e+01 4.7000000000e+00 0.0000e+00 -1.0000e+00
</event>
<event>
10      1 +4.6527485e-10 2.40000000e+02 7.81860800e-03 1.03012300e-01
      -11 -1    0    0    0    0 +0.0000000000e+00 +0.0000000000e+00 +1.2000000000e+02 1.2000000000e+02 0.0000000000e+00 0.0000e+00 1.0000e+00
       11 -1    0    0    0    0 -0.0000000000e+00 -0.0000000000e+00 -1.2000000000e+02 1.2000000000e+02 0.0000000000e+00 0.0000e+00 -1.0000e+00
       23  2    1    2    0    0 -4.8541066975e+01 +1.0707662851e+01 -9.9237349217e+00 1.0511106044e+02 9.2081297147e+01 0.0000e+00 0.0000e+00
       25  2    1    2    0    0 +4.8541066975e+01 -1.0707662851e+01 +9.9237349217e+00 1.3488893956e+02 1.2500262507e+02 0.0000e+00 0.0000e+00
      -11  1    3    3    0    0 -1.3142704561e+01 -9.9894571232e+00 +3.8362128012e+01 4.1763294918e+01 0.0000000000e+00 0.0000e+00 1.0000e+00
       11  1    3    3    0    0 -3.5398362414e+01 +2.0697119974e+01 -4.8285862934e+01 6.3347765518e+01 0.0000000000e+00 0.0000e+00 -1.0000e+00
        5  1    4    4  501    0 +7.5761511308e+00 +2.2451786594e+01 -2.1031666194e+01 3.2029701374e+01 4.7000000000e+00 0.0000e+00 1.0000e+00
       -5  1    4    4    0  502 +3.8275177134e+01 -1.2211644561e+01 +3.3201484136e+01 5.2331080596e+01 4.7000000000e+00 0.0000e+00 1.0000e+00
        5  1    4    4  502    0 -4.5230202845e+00 -2.1356264051e+01 +1.7898011141e+01 2.8617765977e+01 4.7000000000e+00 0.0000e+00 1.0000e+00
       -5  1    4    4    0  501 +7.2127589945e+00 +4.0845916709e-01 -2.0144094162e+01 2.1910391617e+01 4.7000000000e+00 0.0000e+00 1.0000e+00
</event>
<event>
10      1 +4.6527485e-10 2.40000000e+02 7.81860800e-03 1.03012300e-01
      -11 -1    0    0    0    0 +0.0000000000e+00 +0.0000000000e+00 +1.2000000000e+02 1.2000000000e+02 0.0000000000e+00 0.0000e+00 1.0000e+00
       11 -1    0    0    0    0 -0.0000000000e+00 -0.0000000000e+00 -1.2000000000e+02 1.2000000000e+02 0.0000000000e+00 0.0000e+00 -1.0000e+00
       23  2    1    2    0    0 -4.0829311036e+00 +5.1181469118e+01 +4.3880214465e+00 1.0478796834e+02 9.1241714518e+01 0.0000e+00 0.0000e+00
       25  2    1    2    0    0 +4.0829311036e+00 -5.1181469118e+01 -4.3880214465e+00 1.3521203166e+02 1.2500730246e+02 0.0000e+00 0.0000e+00
      -11  1    3    3    0    0 +1.1408553832e+01 +3.2917418746e+01 -4.0797295219e+01 5.3648213900e+01 0.0000000000e+00 0.0000e+00 -1.0000e+00
       11  1    3    3    0    0 -1.5491484936e+01 +1.8264050373e+01 +4.5185316666e+01 5.1139754436e+01 0.0000000000e+00 0.0000e+00 1.0000e+00
        5  1    4    4  501    0 +1.2359569554e+00 +9.1946727272e-01 -4.6203028619e+00 6.7683238839e+00 4.7000000000e+00 0.0000e+00 1.0000e+00
       -5  1    4    4    0  502 +9.6295553537e-01 -8.7265511035e+01 -1.4968295045e-02 8.7397293571e+01 4.7000000000e+00 0.0000e+00 1.0000e+00
        5  1    4    4  502    0 +3.3254836124e+00 +5.3421695000e-01 +1.7359302569e+00 6.0371916371e+00 4.7000000000e+00 0.0000e+00 1.0000e+00
       -5  1    4    4    0  501 -1.4414649996e+00 +3.4630357694e+01 -1.4886805464e+00 3.5009222572e+01 4.7000000000e+00 0.0000e+00 1.0000e+00
</event>
<event>
10      1 +4.6527485e-10 2.40000000e+02 7.81860800e-03 1.03012300e-01
      -11 -1    0    0    0    0 +0.0000000000e+00 +0.0000000000e+00 +1.2000000000e+02 1.2000000000e+02 0.0000000000e+00 0.0000e+00 -1.0000e+00
       11 -1    0    0    0    0 -0.0000000000e+00 -0.0000000000e+00 -1.2000000000e+02 1.2000000000e+02 0.0000000000e+00 0.0000e+00 1.0000e+00
       23  2    1    2    0    0 -5.1550209445e+01 +6.2614900710e+00 -8.0773919833e+00 1.0440074200e+02 9.0208870505e+01 0.0000e+00 0.0000e+00
       25  2    1    2    0    0 +5.1550209445e+01 -6.2614900710e+00 +8.0773919833e+00 1.3559925800e+02 1.2500113662e+02 0.0000e+00 0.0000e+00
      -11  1    3    3    0    0 -7.5178763708e+01 +3.0075354275e+00 -1.9833806681e+01 7.7809200417e+01 0.0000000000e+00 0.0000e+00 1.0000e+00
       11  1    3    3    0    0 +2.3628554263e+01 +3.2539546435e+00 +1.1756414697e+01 2.6591541586e+01 0.0000000000e+00 0.0000e+00 -1.0000e+00
        5  1    4    4  501    0 -4.6317552022e+00 -1.2577003424e+01 +2.8099239633e+00 1.4478254179e+01 4.7000000000e+00 0.0000e+00 1.0000e+00
       -5  1    4    4    0  501 -1.6493228184e+01 -1.7312291306e+01 +2.8637895840e+01 3.7602673899e+01 4.7000000000e+00 0.0000e+00 1.0000e+00
        5  1    4    4  502    0 +5.3732594164e+00 +6.2072030869e+00 -7.4567618837e+00 1.2045521355e+01 4.7000000000e+00 0.0000e+00 -1.0000e+00
       -5  1    4    4    0  502 +6.7301933415e+01 +1.7420601572e+01 -1.5913665937e+01 7.1472808564e+01 4.7000000000e+00 0.0000e+00 -1.0000e+00
</event>
<event>
10      1 +4.6527485e-10 2.40000000e+02 7.81860800e-03 1.03012300e-01
      -11 -1    0    0    0    0 +0.0000000000e+00 +0.0000000000e+00 +1.2000000000e+02 1.2000000000e+02 0.0000000000e+00 0.0000e+00 1.0000e+00
       11 -1    0    0    0    0 -0.0000000000e+00 -0.0000000000e+00 -1.2000000000e+02 1.2000000000e+02 0.0000000000e+00 0.0000e+00 -1.0000e+00
       23  2    1    2    0    0 +1.0119987331e+01 -1.8169126559e+01 +4.7041322744e+01 1.0483155323e+02 9.1346796346e+01 0.0000e+00 0.0000e+00
       25  2    1    2    0    0 -1.0119987331e+01 +1.8169126559e+01 -4.7041322744e+01 1.3516844677e+02 1.2500036662e+02 0.0000e+00 0.0000e+00
      -13  1    3    3    0    0 +2.2767994096e+01 -4.4456946838e+01 +5.5295134227e+01 7.4514116425e+01 0.0000000000e+00 0.0000e+00 1.0000e+00
       13  1    3    3    0    0 -1.2648006766e+01 +2.6287820279e+01 -8.2538114830e+00 3.0317436801e+01 0.0000000000e+00 0.0000e+00 -1.0000e+00
        5  1    4    4  501    0 +2.5261738808e+00 -1.0819126071e+01 -9.2253289629e+00 1.5186564387e+01 4.7000000000e+00 0.0000e+00 1.0000e+00
       -5  1    4    4    0  502 -2.0670879903e+01 -5.4577721492e+00 -1.7162025031e+01 2.7815421190e+01 4.7000000000e+00 0.0000e+00 -1.0000e+00
        5  1    4    4  502    0 -3.0296872260e+01 +1.6280272703e+01 -3.2845805482e+01 4.7790006129e+01 4.7000000000e+00 0.0000e+00 -1.0000e+00
       -5  1    4    4    0  501 +3.8321590952e+01 +1.8165752076e+01 +1.2191836731e+01 4.4376455069e+01 4.7000000000e+00 0.0000e+00 1.0000e+00
</event>
<event>
10      1 +4.6527485e-10 2.40000000e+02 7.81860800e-03 1.03012300e-01
      -11 -1    0    0    0    0 +0.0000000000e+00 +0.0000000000e+00 +1.2000000000e+02 1.2000000000e+02 0.0000000000e+00 0.0000e+00 1.0000e+00
       11 -1    0    0    0    0 -0.0000000000e+00 -0.0000000000e+00 -1.2000000000e+02 1.2000000000e+02 0.0000000000e+00 0.0000e+00 -1.0000e+00
       23  2    1    2    0    0 -7.2855663839e+00 -4.2096525447e+01 -2.8165489934e+01 1.0493407433e+02 9.1611506915e+01 0.0000e+00 0.0000e+00
       25  2    1    2    0    0 +7.2855663839e+00 +4.2096525447e+01 +2.8165489934e+01 1.3506592567e+02 1.2499725006e+02 0.0000e+00 0.0000e+00
      -11  1    3    3    0    0 -1.1488442079e+00 -2.0631832183e+01 +3.3495231333e+01 3.9356357356e+01 0.0000000000e+00 0.0000e+00 1.0000e+00
       11  1    3    3    0    0 -6.1367221759e+00 -2.1464693263e+01 -6.1660721267e+01 6.5577716970e+01 0.0000000000e+00 0.0000e+00 -1.0000e+00
        5  1    4    4  501    0 -1.8893122489e+01 +4.3275697520e+01 -3.0686742796e+01 5.6511080831e+01 4.7000000000e+00 0.0000e+00 1.0000e+00
       -5  1    4    4    0  501 -5.9517547884e+00 +2.9154645340e+00 -2.9344776226e-01 8.1301556012e+00 4.7000000000e+00 0.0000e+00 -1.0000e+00
        5  1    4    4  502    0 +2.0779525906e+01 -3.2049806685e-02 +2.0096315008e+01 2.9287225901e+01 4.7000000000e+00 0.0000e+00 -1.0000e+00
       -5  1    4    4    0  502 +1.1350917755e+01 -4.0625868006e+00 +3.9049365485e+01 4.1137463341e+01 4.7000000000e+00 0.0000e+00 -1.0000e+00
</event>
<event>
10      1 +4.6527485e-10 2.40000000e+02 7.81860800e-03 1.03012300e-01
      -11 -1    0    0    0    0 +0.0000000000e+00 +0.0000000000e+00 +1.2000000000e+02 1.2000000000e+02 0.0000000000e+00 0.0000e+00 -1.0000e+00
       11 -1    0    0    0    0 -0.0000000000e+00 -0.0000000000e+00 -1.2000000000e+02 1.2000000000e+02 0.0000000000e+00 0.0000e+00 1.0000e+00
       23  2    1    2    0    0 +1.9353128617e+01 -4.4133255234e+01 +1.9960777026e+01 1.0455538382e+02 9.0615163529e+01 0.0000e+00 0.0000e+00
       25  2    1    2    0    0 -1.9353128617e+01 +4.4133255234e+01 -1.9960777026e+01 1.3544461618e+02 1.2499809450e+02 0.0000e+00 0.0000e+00
      -11  1    3    3    0    0 -1.5191116276e+01 -6.0954035031e+01 +3.9859791210e+00 6.2944836403e+01 0.0000000000e+00 0.0000e+00 1.0000e+00
       11  1    3    3    0    0 +3.4544244892e+01 +1.6820779797e+01 +1.5974797905e+01 4.1610547416e+01 0.0000000000e+00 0.0000e+00 -1.0000e+00
        5  1    4    4  501    0 -1.4311994521e+01 -3.3173189488e+01 -3.2068665204e+01 4.8536408766e+01 4.7000000000e+00 0.0000e+00 -1.0000e+00
       -5  1    4    4    0  502 +3.1678574902e+00 +1.0648417744e+01 -8.9442824595e-01 1.2096037509e+01 4.7000000000e+00 0.0000e+00 -1.0000e+00
        5  1    4    4  502    0 -6.8824430826e+00 +6.5056040269e+01 +1.7608743237e+01 6.7910339689e+01 4.7000000000e+00 0.0000e+00 1.0000e+00
       -5  1    4    4    0  501 -1.3265485032e+00 +1.6019867080e+00 -4.6064268126e+00 6.9018302155e+00 4.7000000000e+00 0.0000e+00 1.0000e+00
</event>
<event>
10      1 +4.6527485e-10 2.40000000e+02 7.81860800e-03 1.03012300e-01
      -11 -1    0    0    0    0 +0.0000000000e+00 +0.0000000000e+00 +1.2000000000e+02 1.2000000000e+02 0.0000000000e+00 0.0000e+00 1.0000e+00
       11 -1    0    0    0    0 -0.0000000000e+00 -0.0000000000e+00 -1.2000000000e+02 1.2000000000e+02 0.0000000000e+00 0.0000e+00 -1.0000e+00
       23  2    1    2    0    0 -9.8915401735e+00 -1.6913338227e+01 -5.1278465668e+01 1.0347671034e+02 8.7715705352e+01 0.0000e+00 0.0000e+00
       25  2    1    2    0    0 +9.8915401735e+00 +1.6913338227e+01 +5.1278465668e+01 1.3652328966e+02 1.2500089600e+02 0.0000e+00 0.0000e+00
      -11  1    3    3    0    0 +6.4223939865e+00 +9.7789306338e+00 +2.1379052252e+01 2.4370853576e+01 0.0000000000e+00 0.0000e+00 1.0000e+00
       11  1    3    3    0    0 -1.6313934160e+01 -2.6692268861e+01 -7.2657517920e+01 7.9105856768e+01 0.0000000000e+00 0.0000e+00 -1.0000e+00
        5  1    4    4  501    0 +2.7257606006e+01 -1.6997943579e+00 +4.6770539198e+01 5.4363956100e+01 4.7000000000e+00 0.0000e+00 -1.0000e+00
       -5  1    4    4    0  502 +2.2563675799e+01 +1.1201569933e+01 +7.7094652428e+00 2.6760427665e+01 4.7000000000e+00 0.0000e+00 -1.0000e+00
        5  1    4    4  502    0 -3.4441948871e+01 +1.2121600902e+01 -1.5856992767e+01 4.0083852984e+01 4.7000000000e+00 0.0000e+00 -1.0000e+00
       -5  1    4    4    0  501 -5.4877927609e+00 -4.7100382500e+00 +1.2655453994e+01 1.5315052906e+01 4.7000000000e+00 0.0000e+00 -1.0000e+00
</event>
<event>
10      1 +4.6527485e-10 2.40000000e+02 7.81860800e-03 1.03012300e-01
      -11 -1    0    0    0    0 +0.0000000000e+00 +0.0000000000e+00 +1.2000000000e+02 1.2000000000e+02 0.0000000000e+00 0.0000e+00 1.0000e+00
       11 -1    0    0    0    0 -0.0000000000e+00 -0.0000000000e+00 -1.2000000000e+02 1.2000000000e+02 0.0000000000e+00 0.0000e+00 -1.0000e+00
       23  2    1    2    0    0 -5.7194162020e+00 -4.7823302087e-01 -5.0546237688e+01 1.0504428418e+02 9.1904510587e+01 0.0000e+00 0.0000e+00
       25  2    1    2    0    0 +5.7194162020e+00 +4.7823302087e-01 +5.0546237688e+01 1.3495571582e+02 1.2500073063e+02 0.0000e+00 0.0000e+00
      -11  1    3    3    0    0 -4.4292390423e+00 +3.6226773635e+01 +6.6243474471e+00 3.7092846556e+01 0.0000000000e+00 0.0000e+00 1.0000e+00
       11  1    3    3    0    0 -1.2901771597e+00 -3.6705006656e+01 -5.7170585135e+01 6.7951437626e+01 0.0000000000e+00 0.0000e+00 -1.0000e+00
        5  1    4    4  501    0 -8.4000425085e+00 +9.1087480787e+00 +3.7199009917e+01 3.9489066139e+01 4.7000000000e+00 0.0000e+00 1.0000e+00
       -5  1    4    4    0  501 -2.3096464399e+01 -2.9091801963e+01 +2.7044910244e+01 4.6187625825e+01 4.7000000000e+00 0.0000e+00 1.0000e+00
        5  1    4    4  502    0 +2.9194515712e+01 +2.0228357790e+01 -4.3453122540e+00 3.6089859311e+01 4.7000000000e+00 0.0000e+00 1.0000e+00
       -5  1    4    4    0  502 +8.0214073984e+00 +2.3292911528e-01 -9.3523702200e+00 1.3189164543e+01 4.7000000000e+00 0.0000e+00 1.0000e+00
</event>
<event>
10      1 +4.6527485e-10 2.40000000e+02 7.81860800e-03 1.03012300e-01
      -11 -1    0    0    0    0 +0.0000000000e+00 +0.0000000000e+00 +1.2000000000e+02 1.2000000000e+02 0.0000000000e+00 0.0000e+00 1.0000e+00
       11 -1    0    0    0    0 -0.0000000000e+00 -0.0000000000e+00 -1.2000000000e+02 1.2000000000e+02 0.0000000000e+00 0.0000e+00 -1.0000e+00
       23  2    1    2    0    0 +1.7976476951e+00 -4.1993281426e+01 +2.9112449876e+01 1.0494751060e+02 9.1650302896e+01 0.0000e+00 0.0000e+00
       25  2    1    2    0    0 -1.7976476951e+00 +4.1993281426e+01 -2.9112449876e+01 1.3505248940e+02 1.2499989173e+02 0.0000e+00 0.0000e+00
      -13  1    3    3    0    0 +3.1207546585e+00 +2.9151239867e+01 +4.5392570112e+00 2.9667132481e+01 0.0000000000e+00 0.0000e+00 1.0000e+00
       13  1    3    3    0    0 -1.3231069634e+00 -7.1144521293e+01 +2.4573192865e+01 7.5280378118e+01 0.0000000000e+00 0.0000e+00 -1.0000e+00
        5  1    4    4  501    0 -1.7873046750e+01 +6.9342228363e+01 -9.4309986545e+00 7.2379722092e+01 4.7000000000e+00 0.0000e+00 -1.0000e+00
       -5  1    4    4    0  502 +1.6099642586e+01 -3.4587000987e+01 -1.5492521171e+01 4.1443544020e+01 4.7000000000e+00 0.0000e+00 -1.0000e+00
        5  1    4    4  502    0 -1.1065841766e-01 -4.0205952599e+00 +3.2008927230e+00 6.9651378848e+00 4.7000000000e+00 0.0000e+00 -1.0000e+00
       -5  1    4    4    0  501 +8.6414886809e-02 +1.1258649310e+01 -7.3898227728e+00 1.4264085405e+01 4.7000000000e+00 0.0000e+00 -1.0000e+00
</event>
<event>
10      1 +4.6527485e-10 2.40000000e+02 7.81860800e-03 1.03012300e-01
      -11 -1    0    0    0    0 +0.0000000000e+00 +0.0000000000e+00 +1.2000000000e+02 1.2000000000e+02 0.0000000000e+00 0.0000e+00 1.0000e+00
       11 -1    0    0    0    0 -0.0000000000e+00 -0.0000000000e+00 -1.2000000000e+02 1.2000000000e+02 0.0000000000e+00 0.0000e+00 -1.0000e+00
       23  2    1    2    0    0 -8.6799109743e+00 -7.7343732723e+00 +5.1101459995e+01 1.0445394312e+02 9.0355440541e+01 0.0000e+00 0.0000e+00
       25  2    1    2    0    0 +8.6799109743e+00 +7.7343732723e+00 -5.1101459995e+01 1.3554605688e+02 1.2500485166e+02 0.0000e+00 0.0000e+00
      -13  1    3    3    0    0 -1.9916387273e+01 +2.8722536663e+01 +5.5978485945e+01 6.5994223104e+01 0.0000000000e+00 0.0000e+00 1.0000e+00
       13  1    3    3    0    0 +1.1236476299e+01 -3.6456909935e+01 -4.8770259503e+00 3.8459720017e+01 0.0000000000e+00 0.0000e+00 -1.0000e+00
        5  1    4    4  501    0 -5.0828174143e-01 -2.2868462665e+00 +4.2317233260e+00 6.7442937720e+00 4.7000000000e+00 0.0000e+00 1.0000e+00
       -5  1    4    4    0  502 +9.3755882074e+00 -1.8303392911e+01 -6.3763812411e+01 6.7162710037e+01 4.7000000000e+00 0.0000e+00 1.0000e+00
        5  1    4    4  502    0 +1.1574909807e+01 +6.1039280650e+00 -1.9382057489e+01 2.3853524422e+01 4.7000000000e+00 0.0000e+00 1.0000e+00
       -5  1    4    4    0  501 -1.1762305299e+01 +2.2220684385e+01 +2.7812686579e+01 3.7785528648e+01 4.7000000000e+00 0.0000e+00 1.0000e+00
</event>
<event>
10      1 +4.6527485e-10 2.40000000e+02 7.81860800e-03 1.03012300e-01
      -11 -1    0    0    0    0 +0.0000000000e+00 +0.0000000000e+00 +1.2000000000e+02 1.2000000000e+02 0.0000000000e+00 0.0000e+00 -1.0000e+00
       11 -1    0    0    0    0 -0.0000000000e+00 -0.0000000000e+00 -1.2000000000e+02 1.2000000000e+02 0.0000000000e+00 0.0000e+00 1.0000e+00
       23  2    1    2    0    0 -1.7289440175e+01 +3.5970388709e+01 -3.5291833985e+00 1.0873641244e+02 1.0108589738e+02 0.0000e+00 0.0000e+00
       25  2    1    2    0    0 +1.7289440175e+01 -3.5970388709e+01 +3.5291833985e+00 1.3126358756e+02 1.2499952271e+02 0.0000e+00 0.0000e+00
      -11  1    3    3    0    0 +1.2806786264e+01 +5.0488475367e+01 +3.1058384910e+01 6.0644234619e+01 0.0000000000e+00 0.0000e+00 -1.0000e+00
       11  1    3    3    0    0 -3.0096226439e+01 -1.4518086658e+01 -3.4587568309e+01 4.8092177822e+01 0.0000000000e+00 0.0000e+00 1.0000e+00
        5  1    4    4  501    0 +1.0362430784e+01 -4.8390085580e+00 -1.7849015113e+01 2.1713436303e+01 4.7000000000e+00 0.0000e+00 1.0000e+00
       -5  1    4    4    0  501 -1.2672715545e+01 +2.9590730317e+01 -1.2337691863e+01 3.4792494600e+01 4.7000000000e+00 0.0000e+00 1.0000e+00
        5  1    4    4  502    0 +5.2519350441e+00 -3.8539780944e+01 +2.5292569997e+01 4.6633696337e+01 4.7000000000e+00 0.0000e+00 1.0000e+00
       -5  1    4    4    0  502 +1.4347789892e+01 -2.2182329523e+01 +8.4233203773e+00 2.8123960320e+01 4.7000000000e+00 0.0000e+00 1.0000e+00
</event>
<event>
10      1 +4.6527485e-10 2.40000000e+02 7.81860800e-03 1.03012300e-01
      -11 -1    0    0    0    0 +0.0000000000e+00 +0.0000000000e+00 +1.2000000000e+02 1.2000000000e+02 0.0000000000e+00 0.0000e+00 1.0000e+00
       11 -1    0    0    0    0 -0.0000000000e+00 -0.0000000000e+00 -1.2000000000e+02 1.2000000000e+02 0.0000000000e+00 0.0000e+00 -1.0000e+00
       23  2    1    2    0    0 -3.9572761648e+01 -1.4990305097e+01 +2.7367137781e+01 1.0522485100e+02 9.2372053813e+01 0.0000e+00 0.0000e+00
       25  2    1    2    0    0 +3.9572761648e+01 +1.4990305097e+01 -2.7367137781e+01 1.3477514900e+02 1.2499867138e+02 0.0000e+00 0.0000e+00
      -13  1    3    3    0    0 -4.5739962012e+01 -2.1341991081e+01 -2.2007206292e+01 5.5063071445e+01 0.0000000000e+00 0.0000e+00 -1.0000e+00
       13  1    3    3    0    0 +6.1672003638e+00 +6.3516859843e+00 +4.9374344073e+01 5.0161779552e+01 0.0000000000e+00 0.0000e+00 1.0000e+00
        5  1    4    4  501    0 +5.6175432029e+01 +1.8396403055e+01 -2.4068206940e+01 6.3995901386e+01 4.7000000000e+00 0.0000e+00 1.0000e+00
       -5  1    4    4    0  502 -1.2546170199e+01 +3.8628758010e+00 +2.3002105738e-01 1.3945289735e+01 4.7000000000e+00 0.0000e+00 -1.0000e+00
        5  1    4    4  502    0 -1.3772388306e+01 +3.6792402728e+00 -2.5754504213e+01 2.9809394088e+01 4.7000000000e+00 0.0000e+00 -1.0000e+00
       -5  1    4    4    0  501 +9.7158881242e+00 -1.0948214031e+01 +2.2225552315e+01 2.7024563793e+01 4.7000000000e+00 0.0000e+00 1.0000e+00
</event>
<event>
10      1 +4.6527485e-10 2.40000000e+02 7.81860800e-03 1.03012300e-01
      -11 -1    0    0    0    0 +0.0000000000e+00 +0.0000000000e+00 +1.2000000000e+02 1.2000000000e+02 0.0000000000e+00 0.0000e+00 -1.0000e+00
       11 -1    0    0    0    0 -0.0000000000e+00 -0.0000000000e+00 -1.2000000000e+02 1.2000000000e+02 0.0000000000e+00 0.0000e+00 1.0000e+00
       23  2    1    2    0    0 -1.3890279572e+01 -1.9787961389e+01 -4.5047366391e+01 1.0494744652e+02 9.1652594237e+01 0.0000e+00 0.0000e+00
       25  2    1    2    0    0 +1.3890279572e+01 +1.9787961389e+01 +4.5047366391e+01 1.3505255348e+02 1.2500169479e+02 0.0000e+00 0.0000e+00
      -11  1    3    3    0    0 +4.0076379837e+00 +1.5464133496e+01 +2.1954203595e+01 2.7151199651e+01 0.0000000000e+00 0.0000e+00 1.0000e+00
       11  1    3    3    0    0 -1.7897917556e+01 -3.5252094885e+01 -6.7001569987e+01 7.7796246872e+01 0.0000000000e+00 0.0000e+00 -1.0000e+00
        5  1    4    4  501    0 +2.0858822792e+01 -1.9153142327e+01 +3.1504795816e+01 4.2621303460e+01 4.7000000000e+00 0.0000e+00 -1.0000e+00
       -5  1    4    4    0  501 +1.2409113407e+01 -9.4924096314e-01 +3.5678261574e+01 3.8077756012e+01 4.7000000000e+00 0.0000e+00 -1.0000e+00
        5  1    4    4  502    0 -2.6585001460e+00 +2.6926846768e+01 -8.4980839434e+00 2.8747697831e+01 4.7000000000e+00 0.0000e+00 -1.0000e+00
       -5  1    4    4    0  502 -1.6719156481e+01 +1.2963497911e+01 -1.3637607055e+01 2.5605796174e+01 4.7000000000e+00 0.0000e+00 -1.0000e+00
</event>
<event>
10      1 +4.6527485e-10 2.40000000e+02 7.81860800e-03 1.03012300e-01
      -11 -1    0    0    0    0 +0.0000000000e+00 +0.0000000000e+00 +1.2000000000e+02 1.2000000000e+02 0.0000000000e+00 0.0000e+00 -1.0000e+00
       11 -1    0    0    0    0 -0.0000000000e+00 -0.0000000000e+00 -1.2000000000e+02 1.2000000000e+02 0.0000000000e+00 0.0000e+00 1.0000e+00
       23  2    1    2    0    0 +4.0997493024e+01 +1.7041736898e+01 +3.0909731196e+01 1.0379564950e+02 8.8582786944e+01 0.0000e+00 0.0000e+00
       25  2    1    2    0    0 -4.0997493024e+01 -1.7041736898e+01 -3.0909731196e+01 1.3620435050e+02 1.2499999352e+02 0.0000e+00 0.0000e+00
      -11  1    3    3    0    0 +2.2404970901e+01 +5.1243977061e+01 +3.2771490534e+01 6.4822052558e+01 0.0000000000e+00 0.0000e+00 -1.0000e+00
       11  1    3    3    0    0 +1.8592522123e+01 -3.4202240163e+01 -1.8617593382e+00 3.8973596946e+01 0.0000000000e+00 0.0000e+00 1.0000e+00
        5  1    4    4  501    0 -4.2150317454e+01 -2.2317376896e+01 -8.2858081558e+00 4.8635986571e+01 4.7000000000e+00 0.0000e+00 -1.0000e+00
       -5  1    4    4    0  502 +3.7633645417e+01 -4.2926814780e+00 -1.5855248620e+01 4.1330343459e+01 4.7000000000e+00 0.0000e+00 1.0000e+00
        5  1    4    4  502    0 +1.2663836585e+00 -2.7257386500e+00 +5.1970653251e-01 5.6029879206e+00 4.7000000000e+00 0.0000e+00 1.0000e+00
       -5  1    4    4    0  501 -3.7747204646e+01 +1.2294060126e+01 -7.2883809529e+00 4.0635032544e+01 4.7000000000e+00 0.0000e+00 -1.0000e+00
</event>
<event>
10      1 +4.6527485e-10 2.40000000e+02 7.81860800e-03 1.03012300e-01
      -11 -1    0    0    0    0 +0.0000000000e+00 +0.0000000000e+00 +1.2000000000e+02 1.2000000000e+02 0.0000000000e+00 0.0000e+00 -1.0000e+00
       11 -1    0    0    0    0 -0.0000000000e+00 -0.0000000000e+00 -1.2000000000e+02 1.2000000000e+02 0.0000000000e+00 0.0000e+00 1.0000e+00
       23  2    1    2    0    0 +2.4679387603e+01 +3.9695090896e+01 +2.2519007296e+01 1.0465988984e+02 9.0894523700e+01 0.0000e+00 0.0000e+00
       25  2    1    2    0    0 -2.4679387603e+01 -3.9695090896e+01 -2.2519007296e+01 1.3534011016e+02 1.2500026926e+02 0.0000e+00 0.0000e+00
      -11  1    3    3    0    0 -2.1828497445e+01 -1.7017163917e+01 +1.3402097715e+01 3.0751965655e+01 0.0000000000e+00 0.0000e+00 -1.0000e+00
       11  1    3    3    0    0 +4.6507885047e+01 +5.6712254813e+01 +9.1169095816e+00 7.3907924189e+01 0.0000000000e+00 0.0000e+00 1.0000e+00
        5  1    4    4  501    0 -5.8997153145e+01 -7.6410793767e-01 -2.3814467098e+01 6.3800209901e+01 4.7000000000e+00 0.0000e+00 1.0000e+00
       -5  1    4    4    0  501 -4.0101722462e+00 +5.2908321007e+00 -3.4947202175e+00 8.8531042669e+00 4.7000000000e+00 0.0000e+00 1.0000e+00
        5  1    4    4  502    0 +1.4426845878e+01 -4.4609940992e+00 +3.0193586467e-02 1.5815348937e+01 4.7000000000e+00 0.0000e+00 -1.0000e+00
       -5  1    4    4    0  502 +2.3901091911e+01 -3.9760820960e+01 +4.7599864330e+00 4.6871447052e+01 4.7000000000e+00 0.0000e+00 1.0000e+00
</event>
<event>
10      1 +4.6527485e-10 2.40000000e+02 7.81860800e-03 1.03012300e-01
      -11 -1    0    0    0    0 +0.0000000000e+00 +0.0000000000e+00 +1.2000000000e+02 1.2000000000e+02 0.0000000000e+00 0.0000e+00 -1.0000e+00
       11 -1    0    0    0    0 -0.0000000000e+00 -0.0000000000e+00 -1.2000000000e+02 1.2000000000e+02 0.0000000000e+00 0.0000e+00 1.0000e+00
       23  2    1    2    0    0 -4.2200299564e+01 -1.8470721849e+01 +2.0668166565e+01 1.0518854927e+02 9.2279060135e+01 0.0000e+00 0.0000e+00
       25  2    1    2    0    0 +4.2200299564e+01 +1.8470721849e+01 -2.0668166565e+01 1.3481145073e+02 1.2499968516e+02 0.0000e+00 0.0000e+00
      -11  1    3    3    0    0 -3.3561587743e+01 -1.7293364460e+01 +5.6698302069e+01 6.8118559025e+01 0.0000000000e+00 0.0000e+00 -1.0000e+00
       11  1    3    3    0    0 -8.6387118216e+00 -1.1773573890e+00 -3.6030135504e+01 3.7069990245e+01 0.0000000000e+00 0.0000e+00 1.0000e+00
        5  1    4    4  501    0 +2.1648440378e+01 -3.2379977038e+01 +1.8251691910e+01 4.3270453446e+01 4.7000000000e+00 0.0000e+00 -1.0000e+00
       -5  1    4    4    0  501 +1.5450757729e+01 -8.6691640610e+00 -2.9768237141e+00 1.8569647259e+01 4.7000000000e+00 0.0000e+00 -1.0000e+00
        5  1    4    4  502    0 +2.7737856904e+00 +1.0429599188e+01 +2.2113952893e-01 1.1773246323e+01 4.7000000000e+00 0.0000e+00 -1.0000e+00
       -5  1    4    4    0  502 +2.3273157666e+00 +4.9090263760e+01 -3.6164174290e+01 6.1198103702e+01 4.7000000000e+00 0.0000e+00 -1.0000e+00
</event>
<event>
10      1 +4.6527485e-10 2.40000000e+02 7.81860800e-03 1.03012300e-01
      -11 -1    0    0    0    0 +0.0000000000e+00 +0.0000000000e+00 +1.2000000000e+02 1.2000000000e+02 0.0000000000e+00 0.0000e+00 -1.0000e+00
       11 -1    0    0    0    0 -0.0000000000e+00 -0.0000000000e+00 -1.2000000000e+02 1.2000000000e+02 0.0000000000e+00 0.0000e+00 1.0000e+00
       23  2    1    2    0    0 -1.4244678317e+01 +3.8280757574e+01 -7.7670977330e+00 1.0826596633e+02 9.9964315624e+01 0.0000e+00 0.0000e+00
       25  2    1    2    0    0 +1.4244678317e+01 -3.8280757574e+01 +7.7670977330e+00 1.3173403367e+02 1.2500080223e+02 0.0000e+00 0.0000e+00
      -11  1    3    3    0    0 +3.7564905278e+01 +4.1608167738e+01 -4.9003892118e+00 5.6270556648e+01 0.0000000000e+00 0.0000e+00 1.0000e+00
       11  1    3    3    0    0 -5.1809583595e+01 -3.3274101638e+00 -2.8667085213e+00 5.1995409686e+01 0.0000000000e+00 0.0000e+00 -1.0000e+00
        5  1    4    4  501    0 +4.1272173110e+01 +1.9505709711e+00 -1.0019219083e+01 4.2774662493e+01 4.7000000000e+00 0.0000e+00 -1.0000e+00
       -5  1    4    4    0  501 +1.5318476456e+01 -1.2554226903e+01 -1.2882924665e+01 2.4089916604e+01 4.7000000000e+00 0.0000e+00 -1.0000e+00
        5  1    4    4  502    0 -2.5138945548e+01 -9.6976448787e+00 +2.8419457882e+01 3.9443205825e+01 4.7000000000e+00 0.0000e+00 -1.0000e+00
       -5  1    4    4    0  502 -1.7207025701e+01 -1.7979456763e+01 +2.2497835994e+00 2.5426248744e+01 4.7000000000e+00 0.0000e+00 -1.0000e+00
</event>
<event>
10      1 +4.6527485e-10 2.40000000e+02 7.81860800e-03 1.03012300e-01
      -11 -1    0    0    0    0 +0.0000000000e+00 +0.0000000000e+00 +1.2000000000e+02 1.2000000000e+02 0.0000000000e+00 0.0000e+00 -1.0000e+00
       11 -1    0    0    0    0 -0.0000000000e+00 -0.0000000000e+00 -1.2000000000e+02 1.2000000000e+02 0.0000000000e+00 0.0000e+00 1.0000e+00
       23  2    1    2    0    0 +2.7664497424e+01 -2.6914011415e+01 +3.2262493545e+01 1.0523630254e+02 9.2434422453e+01 0.0000e+00 0.0000e+00
       25  2    1    2    0    0 -2.7664497424e+01 +2.6914011415e+01 -3.2262493545e+01 1.3476369746e+02 1.2502278686e+02 0.0000e+00 0.0000e+00
      -13  1    3    3    0    0 +2.9183961296e+00 +3.2999883619e+01 +2.1583697036e+01 3.9539414924e+01 0.0000000000e+00 0.0000e+00 1.0000e+00
       13  1    3    3    0    0 +2.4746101295e+01 -5.9913895034e+01 +1.0678796509e+01 6.5696887615e+01 0.0000000000e+00 0.0000e+00 -1.0000e+00
        5  1    4    4  501    0 -1.3048471106e+01 +4.1633681609e+01 -5.1256466542e+01 6.7475487437e+01 4.7000000000e+00 0.0000e+00 1.0000e+00
       -5  1    4    4    0  501 -1.2179884750e+01 +1.5185990870e+01 +1.9467999794e-01 2.0027276687e+01 4.7000000000e+00 0.0000e+00 -1.0000e+00
        5  1    4    4  502    0 -6.3467942379e+00 -5.2812036446e+00 -6.4364044983e+00 1.1475635577e+01 4.7000000000e+00 0.0000e+00 -1.0000e+00
       -5  1    4    4    0  502 +3.9106526695e+00 -2.4624457419e+01 +2.5235697498e+01 3.5785297759e+01 4.7000000000e+00 0.0000e+00 1.0000e+00
</event>
<event>
10      1 +4.6527485e-10 2.40000000e+02 7.81860800e-03 1.03012300e-01
      -11 -1    0    0    0    0 +0.0000000000e+00 +0.0000000000e+00 +1.2000000000e+02 1.2000000000e+02 0.0000000000e+00 0.0000e+00 1.0000e+00
       11 -1    0    0    0    0 -0.0000000000e+00 -0.0000000000e+00 -1.2000000000e+02 1.2000000000e+02 0.0000000000e+00 0.0000e+00 -1.0000e+00
       23  2    1    2    0    0 -3.3112069173e+01 +2.9839457018e+01 -2.4715015094e+01 1.0500712097e+02 9.1808829439e+01 0.0000e+00 0.0000e+00
       25  2    1    2    0    0 +3.3112069173e+01 -2.9839457018e+01 +2.4715015094e+01 1.3499287903e+02 1.2500177238e+02 0.0000e+00 0.0000e+00
      -11  1    3    3    0    0 -3.0162668132e+01 +2.8756541465e+01 +2.9273017660e+01 5.0927740857e+01 0.0000000000e+00 0.0000e+00 1.0000e+00
       11  1    3    3    0    0 -2.9494010417e+00 +1.0829155534e+00 -5.3988032755e+01 5.4079380112e+01 0.0000000000e+00 0.0000e+00 -1.0000e+00
        5  1    4    4  501    0 +1.3681355418e+01 +1.1789332751e+01 +2.2461096883e+01 2.9202032908e+01 4.7000000000e+00 0.0000e+00 -1.0000e+00
       -5  1    4    4    0  501 +2.2200715871e+01 -4.4564574306e+00 +4.1681277176e+01 4.7667081566e+01 4.7000000000e+00 0.0000e+00 -1.0000e+00
        5  1    4    4  502    0 -4.8891818107e-01 -3.6727415585e+01 -3.6995475077e+01 5.2344028052e+01 4.7000000000e+00 0.0000e+00 1.0000e+00
       -5  1    4    4    0  502 -2.2810839342e+00 -4.4491675332e-01 -2.4318838874e+00 5.7797365056e+00 4.7000000000e+00 0.0000e+00 -1.0000e+00
</event>
<event>
10      1 +4.6527485e-10 2.40000000e+02 7.81860800e-03 1.03012300e-01
      -11 -1    0    0    0    0 +0.0000000000e+00 +0.0000000000e+00 +1.2000000000e+02 1.2000000000e+02 0.0000000000e+00 0.0000e+00 1.0000e+00
       11 -1    0    0    0    0 -0.0000000000e+00 -0.0000000000e+00 -1.2000000000e+02 1.2000000000e+02 0.0000000000e+00 0.0000e+00 -1.0000e+00
       23  2    1    2    0    0 +3.2436075778e-01 +3.1865796235e+01 -6.2220646132e+01 9.6788751131e+01 6.6941163427e+01 0.0000e+00 0.0000e+00
       25  2    1    2    0    0 -3.2436075778e-01 -3.1865796235e+01 +6.2220646132e+01 1.4321124887e+02 1.2499007488e+02 0.0000e+00 0.0000e+00
      -13  1    3    3    0    0 -2.5250462075e+01 -8.2297308591e+00 -2.3484356249e+01 3.5451788297e+01 0.0000000000e+00 0.0000e+00 -1.0000e+00
       13  1    3    3    0    0 +2.5574822833e+01 +4.0095527094e+01 -3.8736289882e+01 6.1336962834e+01 0.0000000000e+00 0.0000e+00 1.0000e+00
        5  1    4    4  501    0 +7.8210469904e+00 -3.4586236418e+00 -4.0682411763e+00 1.0572201275e+01 4.7000000000e+00 0.0000e+00 -1.0000e+00
       -5  1    4    4    0  501 +2.2958106305e+01 -4.2451330136e+01 -7.7502230925e+00 4.9105458285e+01 4.7000000000e+00 0.0000e+00 -1.0000e+00
        5  1    4    4  502    0 -2.8946568561e+01 +7.3822656611e+00 +5.7330831660e+01 6.4817558860e+01 4.7000000000e+00 0.0000e+00 -1.0000e+00
       -5  1    4    4    0  502 -2.1569454924e+00 +6.6618918813e+00 +1.6708278740e+01 1.8716030449e+01 4.7000000000e+00 0.0000e+00 -1.0000e+00
</event>
<event>
10      1 +4.6527485e-10 2.40000000e+02 7.81860800e-03 1.03012300e-01
      -11 -1    0    0    0    0 +0.0000000000e+00 +0.0000000000e+00 +1.2000000000e+02 1.2000000000e+02 0.0000000000e+00 0.0000e+00 1.0000e+00
       11 -1    0    0    0    0 -0.0000000000e+00 -0.0000000000e+00 -1.2000000000e+02 1.2000000000e+02 0.0000000000e+00 0.0000e+00 -1.0000e+00
       23  2    1    2    0    0 +3.1085459246e+01 +9.9484073729e+00 +4.0503575200e+01 1.0460712016e+02 9.0757001925e+01 0.0000e+00 0.0000e+00
       25  2    1    2    0    0 -3.1085459246e+01 -9.9484073729e+00 -4.0503575200e+01 1.3539287984e+02 1.2500166288e+02 0.0000e+00 0.0000e+00
      -13  1    3    3    0    0 -1.5916103160e+01 +4.0501456339e+00 +5.3107370909e+01 5.5588837587e+01 0.0000000000e+00 0.0000e+00 1.0000e+00
       13  1    3    3    0    0 +4.7001562405e+01 +5.8982617390e+00 -1.2603795709e+01 4.9018282573e+01 0.0000000000e+00 0.0000e+00 -1.0000e+00
        5  1    4    4  501    0 +7.7542456819e-01 -1.1639823346e+01 -8.3703437695e+00 1.5107594964e+01 4.7000000000e+00 0.0000e+00 1.0000e+00
       -5  1    4    4    0  502 -9.6757694415e+00 +3.8306948696e+01 +7.0185040427e+00 4.0402874052e+01 4.7000000000e+00 0.0000e+00 -1.0000e+00
        5  1    4    4  502    0 -1.7367859531e+00 +3.8064397647e+00 +1.0666431568e+01 1.2384190386e+01 4.7000000000e+00 0.0000e+00 -1.0000e+00
       -5  1    4    4    0  501 -2.0448328419e+01 -4.0421972488e+01 -4.9818167041e+01 6.7498220438e+01 4.7000000000e+00 0.0000e+00 1.0000e+00
</event>
<event>
10      1 +4.6527485e-10 2.40000000e+02 7.81860800e-03 1.03012300e-01
      -11 -1    0    0    0    0 +0.0000000000e+00 +0.0000000000e+00 +1.2000000000e+02 1.2000000000e+02 0.0000000000e+00 0.0000e+00 1.0000e+00
       11 -1    0    0    0    0 -0.0000000000e+00 -0.0000000000e+00 -1.2000000000e+02 1.2000000000e+02 0.0000000000e+00 0.0000e+00 -1.0000e+00
       23  2    1    2    0    0 -2.2116183221e+00 +5.4352253177e+01 +2.1527150773e+00 1.0365687358e+02 8.8210286121e+01 0.0000e+00 0.0000e+00
       25  2    1    2    0    0 +2.2116183221e+00 -5.4352253177e+01 -2.1527150773e+00 1.3634312642e+02 1.2500302100e+02 0.0000e+00 0.0000e+00
      -11  1    3    3    0    0 -4.3479282815e+01 +4.0306718008e+01 +7.4068371363e+00 5.9748981473e+01 0.0000000000e+00 0.0000e+00 1.0000e+00
       11  1    3    3    0    0 +4.1267664493e+01 +1.4045535170e+01 -5.2541220589e+00 4.3907892110e+01 0.0000000000e+00 0.0000e+00 -1.0000e+00
        5  1    4    4  501    0 -1.8068403889e+01 +1.0264188031e+01 -1.9250901849e+01 2.8714247284e+01 4.7000000000e+00 0.0000e+00 1.0000e+00
       -5  1    4    4    0  502 +4.1760222583e+01 -5.9734564054e+01 +2.3088472167e+01 7.6598315125e+01 4.7000000000e+00 0.0000e+00 -1.0000e+00
        5  1    4    4  502    0 -9.5421817932e-02 -5.6747312132e+00 +2.1204059585e+00 7.6679724239e+00 4.7000000000e+00 0.0000e+00 -1.0000e+00
       -5  1    4    4    0  501 -2.1384778554e+01 +7.9285405862e-01 -8.1106913533e+00 2.3362591585e+01 4.7000000000e+00 0.0000e+00 1.0000e+00
</event>
<event>
10      1 +4.6527485e-10 2.40000000e+02 7.81860800e-03 1.03012300e-01
      -11 -1    0    0    0    0 +0.0000000000e+00 +0.0000000000e+00 +1.2000000000e+02 1.2000000000e+02 0.0000000000e+00 0.0000e+00 1.0000e+00
       11 -1    0    0    0    0 -0.0000000000e+00 -0.0000000000e+00 -1.2000000000e+02 1.2000000000e+02 0.0000000000e+00 0.0000e+00 -1.0000e+00
       23  2    1    2    0    0 +4.0274776252e+01 +1.6187333251e+01 -2.5528136005e+01 1.0523536640e+02 9.2405136516e+01 0.0000e+00 0.0000e+00
       25  2    1    2    0    0 -4.0274776252e+01 -1.6187333251e+01 +2.5528136005e+01 1.3476463360e+02 1.2500293349e+02 0.0000e+00 0.0000e+00
      -11  1    3    3    0    0 -1.2253771508e+01 +8.9150723149e+00 -4.5969233181e+01 4.8402518837e+01 0.0000000000e+00 0.0000e+00 -1.0000e+00
       11  1    3    3    0    0 +5.2528547760e+01 +7.2722609360e+00 +2.0441097176e+01 5.6832847568e+01 0.0000000000e+00 0.0000e+00 1.0000e+00
        5  1    4    4  501    0 +7.4126265604e+00 +4.2483975538e+00 -1.4445354943e+00 9.8576161973e+00 4.7000000000e+00 0.0000e+00 -1.0000e+00
       -5  1    4    4    0  501 +2.5383891522e+01 -8.4435812828e+00 +4.0059758503e+01 4.8399486206e+01 4.7000000000e+00 0.0000e+00 -1.0000e+00
        5  1    4    4  502    0 -1.0865087594e+01 -2.0619423105e+00 -4.1327009713e+00 1.2707122091e+01 4.7000000000e+00 0.0000e+00 -1.0000e+00
       -5  1    4    4    0  502 -6.2206206740e+01 -9.9302072116e+00 -8.9543860324e+00 6.3800409101e+01 4.7000000000e+00 0.0000e+00 -1.0000e+00
</event>
<event>
10      1 +4.6527485e-10 2.40000000e+02 7.81860800e-03 1.03012300e-01
      -11 -1    0    0    0    0 +0.0000000000e+00 +0.0000000000e+00 +1.2000000000e+02 1.2000000000e+02 0.0000000000e+00 0.0000e+00 1.0000e+00
       11 -1    0    0    0    0 -0.0000000000e+00 -0.0000000000e+00 -1.2000000000e+02 1.2000000000e+02 0.0000000000e+00 0.0000e+00 -1.0000e+00
       23  2    1    2    0    0 -1.1426206330e+01 -2.4248028807e+01 -4.3131951967e+01 1.0507989620e+02 9.1993990094e+01 0.0000e+00 0.0000e+00
       25  2    1    2    0    0 +1.1426206330e+01 +2.4248028807e+01 +4.3131951967e+01 1.3492010380e+02 1.2499817613e+02 0.0000e+00 0.0000e+00
      -11  1    3    3    0    0 +3.2189586201e+01 +7.5613010925e+00 +4.1410204334e+00 3.3324027131e+01 0.0000000000e+00 0.0000e+00 1.0000e+00
       11  1    3    3    0    0 -4.3615792530e+01 -3.1809329900e+01 -4.7272972400e+01 7.1755869072e+01 0.0000000000e+00 0.0000e+00 -1.0000e+00
        5  1    4    4  501    0 +1.1728318082e+01 +2.3812442698e+01 +1.9390485592e+01 3.3206427145e+01 4.7000000000e+00 0.0000e+00 -1.0000e+00
       -5  1    4    4    0  501 +3.6294149782e+01 +3.9681389321e+00 +4.0952657476e+01 5.5065611677e+01 4.7000000000e+00 0.0000e+00 -1.0000e+00
        5  1    4    4  502    0 -2.9513587999e+01 +6.1073256617e+00 -1.1936296185e+01 3.2755403676e+01 4.7000000000e+00 0.0000e+00 -1.0000e+00
       -5  1    4    4    0  502 -7.0826735353e+00 -9.6398784843e+00 -5.2748949157e+00 1.3892661299e+01 4.7000000000e+00 0.0000e+00 -1.0000e+00
</event>
<event>
10      1 +4.6527485e-10 2.40000000e+02 7.81860800e-03 1.03012300e-01
      -11 -1    0    0    0    0 +0.0000000000e+00 +0.0000000000e+00 +1.2000000000e+02 1.2000000000e+02 0.0000000000e+00 0.0000e+00 1.0000e+00
       11 -1    0    0    0    0 -0.0000000000e+00 -0.0000000000e+00 -1.2000000000e+02 1.2000000000e+02 0.0000000000e+00 0.0000e+00 -1.0000e+00
       23  2    1    2    0    0 +5.1441834090e+01 -1.5442374521e+01 +4.1761567412e+01 9.7683977861e+01 7.0095661724e+01 0.0000e+00 0.0000e+00
       25  2    1    2    0    0 -5.1441834090e+01 +1.5442374521e+01 -4.1761567412e+01 1.4231602214e+02 1.2500036968e+02 0.0000e+00 0.0000e+00
      -11  1    3    3    0    0 +5.5982441706e+01 +1.4622385712e+01 +2.8779449788e+01 6.4622787571e+01 0.0000000000e+00 0.0000e+00 1.0000e+00
       11  1    3    3    0    0 -4.5406076158e+00 -3.0064760233e+01 +1.2982117623e+01 3.3061190290e+01 0.0000000000e+00 0.0000e+00 -1.0000e+00
        5  1    4    4  501    0 -2.5610073883e+00 -1.1205468907e+01 -2.4282817147e+01 2.7273916126e+01 4.7000000000e+00 0.0000e+00 -1.0000e+00
       -5  1    4    4    0  501 +6.2511882867e+00 -2.8981386278e+01 -1.7060930088e+01 3.4527719894e+01 4.7000000000e+00 0.0000e+00 -1.0000e+00
        5  1    4    4  502    0 -3.9373407755e+01 +3.5851339478e+01 +6.5733281998e+00 5.3859840552e+01 4.7000000000e+00 0.0000e+00 1.0000e+00
       -5  1    4    4    0  502 -1.5758607234e+01 +1.9777890228e+01 -6.9911483761e+00 2.6654545568e+01 4.7000000000e+00 0.0000e+00 1.0000e+00
</event>
<event>
10      1 +4.6527485e-10 2.40000000e+02 7.81860800e-03 1.03012300e-01
      -11 -1    0    0    0    0 +0.0000000000e+00 +0.0000000000e+00 +1.2000000000e+02 1.2000000000e+02 0.0000000000e+00 0.0000e+00 1.0000e+00
       11 -1    0    0    0    0 -0.0000000000e+00 -0.0000000000e+00 -1.2000000000e+02 1.2000000000e+02 0.0000000000e+00 0.0000e+00 -1.0000e+00
       23  2    1    2    0    0 +1.2575866521e+01 +4.3771213874e+01 -1.6115249325e+00 1.0696285621e+02 9.6769747408e+01 0.0000e+00 0.0000e+00
       25  2    1    2    0    0 -1.2575866521e+01 -4.3771213874e+01 +1.6115249325e+00 1.3303714379e+02 1.2498885163e+02 0.0000e+00 0.0000e+00
      -13  1    3    3    0    0 -3.9531761446e+01 +2.7473695779e+00 +6.4764189363e+00 4.0152860482e+01 0.0000000000e+00 0.0000e+00 -1.0000e+00
       13  1    3    3    0    0 +5.2107627967e+01 +4.1023844296e+01 -8.0879438687e+00 6.6809995728e+01 0.0000000000e+00 0.0000e+00 1.0000e+00
        5  1    4    4  501    0 -6.3531906638e+00 -4.5936448419e+01 +6.3640793023e+00 4.7043722539e+01 4.7000000000e+00 0.0000e+00 -1.0000e+00
       -5  1    4    4    0  502 -3.7104397824e+00 +4.9706682311e+00 +3.6909864287e+00 8.6132622658e+00 4.7000000000e+00 0.0000e+00 1.0000e+00
        5  1    4    4  502    0 +1.8597180323e+01 +1.3698135164e+01 +2.4939969387e+01 3.4315974356e+01 4.7000000000e+00 0.0000e+00 1.0000e+00
       -5  1    4    4    0  501 -2.1109416398e+01 -1.6503568851e+01 -3.3383510186e+01 4.3064184629e+01 4.7000000000e+00 0.0000e+00 -1.0000e+00
</event>
<event>
10      1 +4.6527485e-10 2.40000000e+02 7.81860800e-03 1.03012300e-01
      -11 -1    0    0    0    0 +0.0000000000e+00 +0.0000000000e+00 +1.2000000000e+02 1.2000000000e+02 0.0000000000e+00 0.0000e+00 -1.0000e+00
       11 -1    0    0    0    0 -0.0000000000e+00 -0.0000000000e+00 -1.2000000000e+02 1.2000000000e+02 0.0000000000e+00 0.0000e+00 1.0000e+00
       23  2    1    2    0    0 +1.0649054472e+01 -3.6897000176e+01 -3.5798746437e+01 1.0441909792e+02 9.0260770998e+01 0.0000e+00 0.0000e+00
       25  2    1    2    0    0 -1.0649054472e+01 +3.6897000176e+01 +3.5798746437e+01 1.3558090208e+02 1.2500335907e+02 0.0000e+00 0.0000e+00
      -13  1    3    3    0    0 +4.7959788070e+00 -4.5661747785e+01 +1.8209481233e+01 4.9392123160e+01 0.0000000000e+00 0.0000e+00 -1.0000e+00
       13  1    3    3    0    0 +5.8530756648e+00 +8.7647476088e+00 -5.4008227669e+01 5.5026974761e+01 0.0000000000e+00 0.0000e+00 1.0000e+00
        5  1    4    4  501    0 +1.1520983588e+01 +3.8842038404e+01 -3.4113843014e+01 5.3172185355e+01 4.7000000000e+00 0.0000e+00 -1.0000e+00
       -5  1    4    4    0  501 +8.5590438697e-01 +7.2033642181e+00 +5.6042973722e+00 1.0301416282e+01 4.7000000000e+00 0.0000e+00 -1.0000e+00
        5  1    4    4  502    0 -6.6567734969e+00 -1.0838797270e+01 +4.1044210229e+01 4.3226257679e+01 4.7000000000e+00 0.0000e+00 -1.0000e+00
       -5  1    4    4    0  502 -1.6369168950e+01 +1.6903948237e+00 +2.3264081849e+01 2.8881042763e+01 4.7000000000e+00 0.0000e+00 -1.0000e+00
</event>
<event>
10      1 +4.6527485e-10 2.40000000e+02 7.81860800e-03 1.03012300e-01
      -11 -1    0    0    0    0 +0.0000000000e+00 +0.0000000000e+00 +1.2000000000e+02 1.2000000000e+02 0.0000000000e+00 0.0000e+00 -1.0000e+00
       11 -1    0    0    0    0 -0.0000000000e+00 -0.0000000000e+00 -1.2000000000e+02 1.2000000000e+02 0.0000000000e+00 0.0000e+00 1.0000e+00
       23  2    1    2    0    0 +2.0885679536e+01 +2.7800678121e+01 +2.5021482384e+01 1.0786266651e+02 9.8990862868e+01 0.0000e+00 0.0000e+00
       25  2    1    2    0    0 -2.0885679536e+01 -2.7800678121e+01 -2.5021482384e+01 1.3213733349e+02 1.2500044403e+02 0.0000e+00 0.0000e+00
      -11  1    3    3    0    0 +1.4547993721e+01 +5.8122342105e+01 -1.0395200236e+01 6.0810451084e+01 0.0000000000e+00 0.0000e+00 1.0000e+00
       11  1    3    3    0    0 +6.3376858151e+00 -3.0321663984e+01 +3.5416682620e+01 4.7052215422e+01 0.0000000000e+00 0.0000e+00 -1.0000e+00
        5  1    4    4  501    0 -1.0517706982e+01 -2.3442670416e+01 -5.5711330081e+01 6.1530669229e+01 4.7000000000e+00 0.0000e+00 -1.0000e+00
       -5  1    4    4    0  501 +8.2368127940e-01 +3.0295723609e+00 -1.6520567092e+01 1.7460695764e+01 4.7000000000e+00 0.0000e+00 -1.0000e+00
        5  1    4    4  502    0 -8.9952441818e+00 +4.6543124259e+00 +1.9012314378e+01 2.2048472511e+01 4.7000000000e+00 0.0000e+00 1.0000e+00
       -5  1    4    4    0  502 -2.1964096513e+00 -1.2041892492e+01 +2.8198100410e+01 3.1097495990e+01 4.7000000000e+00 0.0000e+00 1.0000e+00
</event>
<event>
10      1 +4.6527485e-10 2.40000000e+02 7.81860800e-03 1.03012300e-01
      -11 -1    0    0    0    0 +0.0000000000e+00 +0.0000000000e+00 +1.2000000000e+02 1.2000000000e+02 0.0000000000e+00 0.0000e+00 -1.0000e+00
       11 -1    0    0    0    0 -0.0000000000e+00 -0.0000000000e+00 -1.2000000000e+02 1.2000000000e+02 0.0000000000e+00 0.0000e+00 1.0000e+00
       23  2    1    2    0    0 -3.4580328427e+01 +1.6421937689e+01 +3.4427495565e+01 1.0481171636e+02 9.1294930217e+01 0.0000e+00 0.0000e+00
       25  2    1    2    0    0 +3.4580328427e+01 -1.6421937689e+01 -3.4427495565e+01 1.3518828364e+02 1.2500056173e+02 0.0000e+00 0.0000e+00
      -13  1    3    3    0    0 -1.5925220569e+01 +2.4173278699e+01 -2.7344344476e+01 3.9820512655e+01 0.0000000000e+00 0.0000e+00 1.0000e+00
       13  1    3    3    0    0 -1.8655107858e+01 -7.7513410105e+00 +6.1771840041e+01 6.4991203703e+01 0.0000000000e+00 0.0000e+00 -1.0000e+00
        5  1    4    4  501    0 +7.9428107113e+00 +1.2212022858e+01 +1.3794921375e+01 2.0606105892e+01 4.7000000000e+00 0.0000e+00 -1.0000e+00
       -5  1    4    4    0  501 +1.6858243355e+00 -5.5509935167e+00 +2.6038432902e+01 2.7087737460e+01 4.7000000000e+00 0.0000e+00 -1.0000e+00
        5  1    4    4  502    0 +6.0992567461e+00 -2.5214416980e+01 -4.7922239251e+01 5.4695509609e+01 4.7000000000e+00 0.0000e+00 1.0000e+00
       -5  1    4    4    0  502 +1.8852436635e+01 +2.1314499500e+00 -2.6338610591e+01 3.2798930681e+01 4.7000000000e+00 0.0000e+00 1.0000e+00
</event>
<event>
10      1 +4.6527485e-10 2.40000000e+02 7.81860800e-03 1.03012300e-01
      -11 -1    0    0    0    0 +0.0000000000e+00 +0.0000000000e+00 +1.2000000000e+02 1.2000000000e+02 0.0000000000e+00 0.0000e+00 -1.0000e+00
       11 -1    0    0    0    0 -0.0000000000e+00 -0.0000000000e+00 -1.2000000000e+02 1.2000000000e+02 0.0000000000e+00 0.0000e+00 1.0000e+00
       23  2    1    2    0    0 +2.5839109154e+00 -1.2434350415e+01 -4.0673936858e+01 1.0794536146e+02 9.9179343897e+01 0.0000e+00 0.0000e+00
       25  2    1    2    0    0 -2.5839109154e+00 +1.2434350415e+01 +4.0673936858e+01 1.3205463854e+02 1.2499107470e+02 0.0000e+00 0.0000e+00
      -11  1    3    3    0    0 +2.4039902370e+01 -3.3868577165e+01 -5.9267430840e+01 7.2371443149e+01 0.0000000000e+00 0.0000e+00 1.0000e+00
       11  1    3    3    0    0 -2.1455991455e+01 +2.1434226749e+01 +1.8593493982e+01 3.5573918313e+01 0.0000000000e+00 0.0000e+00 -1.0000e+00
        5  1    4    4  501    0 +1.6690732314e+01 -1.5278218803e+01 -1.8505079295e+01 2.9606291134e+01 4.7000000000e+00 0.0000e+00 1.0000e+00
       -5  1    4    4    0  501 +9.4627894577e+00 +7.4676602855e+00 -1.3485120234e+01 1.8688199544e+01 4.7000000000e+00 0.0000e+00 1.0000e+00
        5  1    4    4  502    0 -4.5764784721e+00 +3.2591112604e+00 +2.9398936717e+00 7.8929675163e+00 4.7000000000e+00 0.0000e+00 1.0000e+00
       -5  1    4    4    0  502 -2.4160954215e+01 +1.6985797672e+01 +6.9724242715e+01 7.5867180344e+01 4.7000000000e+00 0.0000e+00 -1.0000e+00
</event>
<event>
10      1 +4.6527485e-10 2.40000000e+02 7.81860800e-03 1.03012300e-01
      -11 -1    0    0    0    0 +0.0000000000e+00 +0.0000000000e+00 +1.2000000000e+02 1.2000000000e+02 0.0000000000e+00 0.0000e+00 1.0000e+00
       11 -1    0    0    0    0 -0.0000000000e+00 -0.0000000000e+00 -1.2000000000e+02 1.2000000000e+02 0.0000000000e+00 0.0000e+00 -1.0000e+00
       23  2    1    2    0    0 +3.0812962332e+01 -1.9736915430e+01 -3.5819120102e+01 1.0491848041e+02 9.1574525329e+01 0.0000e+00 0.0000e+00
       25  2    1    2    0    0 -3.0812962332e+01 +1.9736915430e+01 +3.5819120102e+01 1.3508151959e+02 1.2500009236e+02 0.0000e+00 0.0000e+00
      -13  1    3    3    0    0 +2.2579610446e+01 -3.1616980573e+01 -6.3067253269e+01 7.4073954284e+01 0.0000000000e+00 0.0000e+00 -1.0000e+00
       13  1    3    3    0    0 +8.2333518862e+00 +1.1880065142e+01 +2.7248133167e+01 3.0844526130e+01 0.0000000000e+00 0.0000e+00 1.0000e+00
        5  1    4    4  501    0 -6.8060117687e+00 -3.4486276469e+00 +2.1572169385e+00 9.2172888509e+00 4.7000000000e+00 0.0000e+00 1.0000e+00
       -5  1    4    4    0  501 -2.8036530360e+00 -4.5321366152e+01 +1.1849911590e+01 4.7163514553e+01 4.7000000000e+00 0.0000e+00 1.0000e+00
        5  1    4    4  502    0 -8.8638230773e+00 +3.4817055211e+01 -4.1154914983e-01 3.6236087893e+01 4.7000000000e+00 0.0000e+00 -1.0000e+00
       -5  1    4    4    0  502 -1.2339474450e+01 +3.3689854019e+01 +2.2223540723e+01 4.2464628289e+01 4.7000000000e+00 0.0000e+00 -1.0000e+00
</event>
<event>
10      1 +4.6527485e-10 2.40000000e+02 7.81860800e-03 1.03012300e-01
      -11 -1    0    0    0    0 +0.0000000000e+00 +0.0000000000e+00 +1.2000000000e+02 1.2000000000e+02 0.0000000000e+00 0.0000e+00 -1.0000e+00
       11 -1    0    0    0    0 -0.0000000000e+00 -0.0000000000e+00 -1.2000000000e+02 1.2000000000e+02 0.0000000000e+00 0.0000e+00 1.0000e+00
       23  2    1    2    0    0 -1.4594506034e+01 -2.0670350009e+01 -4.5429860819e+01 1.0460978231e+02 9.0769330307e+01 0.0000e+00 0.0000e+00
       25  2    1    2    0    0 +1.4594506034e+01 +2.0670350009e+01 +4.5429860819e+01 1.3539021769e+02 1.2500550315e+02 0.0000e+00 0.0000e+00
      -13  1    3    3    0    0 +3.2740480961e+01 -2.2685469901e+00 -4.2557915613e+01 5.3742549068e+01 0.0000000000e+00 0.0000e+00 1.0000e+00
       13  1    3    3    0    0 -4.7334986995e+01 -1.8401803019e+01 -2.8719452059e+00 5.0867233239e+01 0.0000000000e+00 0.0000e+00 -1.0000e+00
        5  1    4    4  501    0 +4.9469376395e+00 +3.0942122456e+01 +2.0025435111e+01 3.7483265406e+01 4.7000000000e+00 0.0000e+00 -1.0000e+00
       -5  1    4    4    0  501 +8.9677196454e+00 +2.8378225547e+01 +3.9344089912e+01 4.9555939017e+01 4.7000000000e+00 0.0000e+00 -1.0000e+00
        5  1    4    4  502    0 +7.7250400882e-01 -1.7633784642e+01 +5.7723176212e+00 1.9156115837e+01 4.7000000000e+00 0.0000e+00 1.0000e+00
       -5  1    4    4    0  502 -9.2655259714e-02 -2.1016213351e+01 -1.9711981826e+01 2.9194897433e+01 4.7000000000e+00 0.0000e+00 1.0000e+00
</event>
<event>
10      1 +4.6527485e-10 2.40000000e+02 7.81860800e-03 1.03012300e-01
      -11 -1    0    0    0    0 +0.0000000000e+00 +0.0000000000e+00 +1.2000000000e+02 1.2000000000e+02 0.0000000000e+00 0.0000e+00 1.0000e+00
       11 -1    0    0    0    0 -0.0000000000e+00 -0.0000000000e+00 -1.2000000000e+02 1.2000000000e+02 0.0000000000e+00 0.0000e+00 -1.0000e+00
       23  2    1    2    0    0 +2.8108951570e+01 +2.6768332457e+01 +5.6768007265e+01 9.7320337759e+01 6.8862070198e+01 0.0000e+00 0.0000e+00
       25  2    1    2    0    0 -2.8108951570e+01 -2.6768332457e+01 -5.6768007265e+01 1.4267966224e+02 1.2501288968e+02 0.0000e+00 0.0000e+00
      -11  1    3    3    0    0 -1.4920646653e+00 +2.2846456221e+01 -9.3823557714e+00 2.4742987262e+01 0.0000000000e+00 0.0000e+00 -1.0000e+00
       11  1    3    3    0    0 +2.9601016235e+01 +3.9218762358e+00 +6.6150363036e+01 7.2577350497e+01 0.0000000000e+00 0.0000e+00 1.0000e+00
        5  1    4    4  501    0 +2.2553440132e+01 -3.3478983700e+00 -4.0029882704e+01 4.6307100909e+01 4.7000000000e+00 0.0000e+00 -1.0000e+00
       -5  1    4    4    0  501 +5.0371176798e+00 -1.4362871815e+01 -3.0898885090e+01 3.4763425336e+01 4.7000000000e+00 0.0000e+00 -1.0000e+00
        5  1    4    4  502    0 -4.7879089761e+01 -4.4332520476e+00 +1.6614266462e+01 5.1089967803e+01 4.7000000000e+00 0.0000e+00 1.0000e+00
       -5  1    4    4    0  502 -7.8204196201e+00 -4.6243102249e+00 -2.4535059328e+00 1.0519168192e+01 4.7000000000e+00 0.0000e+00 1.0000e+00
</event>
<event>
10      1 +4.6527485e-10 2.40000000e+02 7.81860800e-03 1.03012300e-01
      -11 -1    0    0    0    0 +0.0000000000e+00 +0.0000000000e+00 +1.2000000000e+02 1.2000000000e+02 0.0000000000e+00 0.0000e+00 1.0000e+00
       11 -1    0    0    0    0 -0.0000000000e+00 -0.0000000000e+00 -1.2000000000e+02 1.2000000000e+02 0.0000000000e+00 0.0000e+00 -1.0000e+00
       23  2    1    2    0    0 -3.0266093894e+01 -3.0171103029e+01 -2.7848515866e+01 1.0499426751e+02 9.1771043776e+01 0.0000e+00 0.0000e+00
       25  2    1    2    0    0 +3.0266093894e+01 +3.0171103029e+01 +2.7848515866e+01 1.3500573249e+02 1.2499870428e+02 0.0000e+00 0.0000e+00
      -11  1    3    3    0    0 -5.9081937972e+01 -3.8860258869e+01 -2.3863490194e+01 7.4634183041e+01 0.0000000000e+00 0.0000e+00 1.0000e+00
       11  1    3    3    0    0 +2.8815844078e+01 +8.6891558403e+00 -3.9850256719e+00 3.0360084466e+01 0.0000000000e+00 0.0000e+00 -1.0000e+00
        5  1    4    4  501    0 +3.0220170558e+01 +3.6998562418e+01 -3.0438850288e+01 5.6839827026e+01 4.7000000000e+00 0.0000e+00 1.0000e+00
       -5  1    4    4    0  502 -1.2372139440e+01 -4.1046471830e+00 +5.0793368258e+01 5.2649541515e+01 4.7000000000e+00 0.0000e+00 1.0000e+00
        5  1    4    4  502    0 +2.6639027029e+00 -4.6632548040e+00 +1.1728781047e+01 1.3729407410e+01 4.7000000000e+00 0.0000e+00 1.0000e+00
       -5  1    4    4    0  501 +9.7541600726e+00 +1.9404425982e+00 -4.2347831506e+00 1.1786956542e+01 4.7000000000e+00 0.0000e+00 -1.0000e+00
</event>
<event>
10      1 +4.6527485e-10 2.40000000e+02 7.81860800e-03 1.03012300e-01
      -11 -1    0    0    0    0 +0.0000000000e+00 +0.0000000000e+00 +1.2000000000e+02 1.2000000000e+02 0.0000000000e+00 0.0000e+00 1.0000e+00
       11 -1    0    0    0    0 -0.0000000000e+00 -0.0000000000e+00 -1.2000000000e+02 1.2000000000e+02 0.0000000000e+00 0.0000e+00 -1.0000e+00
       23  2    1    2    0    0 +4.4060534032e+01 +3.1006491758e+01 +8.7319686047e+00 1.0360317525e+02 8.8060419352e+01 0.0000e+00 0.0000e+00
       25  2    1    2    0    0 -4.4060534032e+01 -3.1006491758e+01 -8.7319686047e+00 1.3639682475e+02 1.2500045334e+02 0.0000e+00 0.0000e+00
      -11  1    3    3    0    0 +4.6425812637e+01 -1.6784533432e+01 +2.1852931156e+01 5.3987287778e+01 0.0000000000e+00 0.0000e+00 1.0000e+00
       11  1    3    3    0    0 -2.3652786055e+00 +4.7791025190e+01 -1.3120962551e+01 4.9615887475e+01 0.0000000000e+00 0.0000e+00 -1.0000e+00
        5  1    4    4  501    0 +6.9189122040e+00 +1.0842310976e+00 +2.2617178167e+00 8.7322546139e+00 4.7000000000e+00 0.0000e+00 1.0000e+00
       -5  1    4    4    0  501 +2.5686486026e+01 +1.0409408518e+01 -2.4864341286e+01 3.7529679158e+01 4.7000000000e+00 0.0000e+00 1.0000e+00
        5  1    4    4  502    0 -3.3714727507e+01 -2.5727930769e+01 +8.0460087736e+00 4.3421625139e+01 4.7000000000e+00 0.0000e+00 -1.0000e+00
       -5  1    4    4    0  502 -4.2951204755e+01 -1.6772200606e+01 +5.8246460914e+00 4.6713265836e+01 4.7000000000e+00 0.0000e+00 -1.0000e+00
</event>
<event>
10      1 +4.6527485e-10 2.40000000e+02 7.81860800e-03 1.03012300e-01
      -11 -1    0    0    0    0 +0.0000000000e+00 +0.0000000000e+00 +1.2000000000e+02 1.2000000000e+02 0.0000000000e+00 0.0000e+00 1.0000e+00
       11 -1    0    0    0    0 -0.0000000000e+00 -0.0000000000e+00 -1.2000000000e+02 1.2000000000e+02 0.0000000000e+00 0.0000e+00 -1.0000e+00
       23  2    1    2    0    0 +4.1804699657e+01 +3.8185376722e+01 +3.6876403347e+00 1.0272687192e+02 8.5635597818e+01 0.0000e+00 0.0000e+00
       25  2    1    2    0    0 -4.1804699657e+01 -3.8185376722e+01 -3.6876403347e+00 1.3727312808e+02 1.2499822836e+02 0.0000e+00 0.0000e+00
      -11  1    3    3    0    0 +4.4719799386e+01 +3.4109063887e+01 +3.8111919645e+01 6.7939731494e+01 0.0000000000e+00 0.0000e+00 1.0000e+00
       11  1    3    3    0    0 -2.9150997296e+00 +4.0763128351e+00 -3.4424279310e+01 3.4787140423e+01 0.0000000000e+00 0.0000e+00 -1.0000e+00
        5  1    4    4  501    0 +1.2323181218e+00 +9.0852232828e+00 +6.6543061888e+00 1.2264977819e+01 4.7000000000e+00 0.0000e+00 -1.0000e+00
       -5  1    4    4    0  502 -4.6308681753e+01 -4.0835192292e+01 -2.6304948951e+00 6.1975934351e+01 4.7000000000e+00 0.0000e+00 -1.0000e+00
        5  1    4    4  502    0 -2.8830564225e+01 -5.3750922859e+00 -7.2209264187e+00 3.0566727482e+01 4.7000000000e+00 0.0000e+00 -1.0000e+00
       -5  1    4    4    0  501 +3.2102228199e+01 -1.0603154266e+00 -4.9052520963e-01 3.2465488432e+01 4.7000000000e+00 0.0000e+00 -1.0000e+00
</event>
<event>
10      1 +4.6527485e-10 2.40000000e+02 7.81860800e-03 1.03012300e-01
      -11 -1    0    0    0    0 +0.0000000000e+00 +0.0000000000e+00 +1.2000000000e+02 1.2000000000e+02 0.0000000000e+00 0.0000e+00 1.0000e+00
       11 -1    0    0    0    0 -0.0000000000e+00 -0.0000000000e+00 -1.2000000000e+02 1.2000000000e+02 0.0000000000e+00 0.0000e+00 -1.0000e+00
       23  2    1    2    0    0 +2.3191488541e+01 +1.4700564269e+01 +4.1798390888e+01 1.0536660939e+02 9.2741927753e+01 0.0000e+00 0.0000e+00
       25  2    1    2    0    0 -2.3191488541e+01 -1.4700564269e+01 -4.1798390888e+01 1.3463339061e+02 1.2500037062e+02 0.0000e+00 0.0000e+00
      -11  1    3    3    0    0 +3.4543143536e+01 +1.5950143466e+01 +6.7363954462e+01 7.7366260105e+01 0.0000000000e+00 0.0000e+00 1.0000e+00
       11  1    3    3    0    0 -1.1351654995e+01 -1.2495791970e+00 -2.5565563574e+01 2.8000349286e+01 0.0000000000e+00 0.0000e+00 -1.0000e+00
        5  1    4    4  501    0 +1.4539188315e-01 +2.1395014451e+00 -2.0054256099e+01 2.0708978558e+01 4.7000000000e+00 0.0000e+00 1.0000e+00
       -5  1    4    4    0  501 +4.0409411912e+01 -1.6519225092e+01 -1.2236699454e+01 4.5581050693e+01 4.7000000000e+00 0.0000e+00 1.0000e+00
        5  1    4    4  502    0 -1.6756475921e+01 +5.2626628502e+00 +4.5760456371e+00 1.8748474584e+01 4.7000000000e+00 0.0000e+00 1.0000e+00
       -5  1    4    4    0  502 -4.6989816415e+01 -5.5835034721e+00 -1.4083480972e+01 4.9594886773e+01 4.7000000000e+00 0.0000e+00 1.0000e+00
</event>
<event>
10      1 +4.6527485e-10 2.40000000e+02 7.81860800e-03 1.03012300e-01
      -11 -1    0    0    0    0 +0.0000000000e+00 +0.0000000000e+00 +1.2000000000e+02 1.2000000000e+02 0.0000000000e+00 0.0000e+00 1.0000e+00
       11 -1    0    0    0    0 -0.0000000000e+00 -0.0000000000e+00 -1.2000000000e+02 1.2000000000e+02 0.0000000000e+00 0.0000e+00 -1.0000e+00
       23  2    1    2    0    0 +4.9750188443e+01 +8.7845247223e+00 -7.3278288820e+00 1.0497438482e+02 9.1726088264e+01 0.0000e+00 0.0000e+00
       25  2    1    2    0    0 -4.9750188443e+01 -8.7845247223e+00 +7.3278288820e+00 1.3502561518e+02 1.2500388215e+02 0.0000e+00 0.0000e+00
      -11  1    3    3    0    0 -2.1922593325e+01 -1.3736684731e+01 +1.0233670914e+01 2.7821298062e+01 0.0000000000e+00 0.0000e+00 1.0000e+00
       11  1    3    3    0    0 +7.1672781769e+01 +2.2521209453e+01 -1.7561499796e+01 7.7153086761e+01 0.0000000000e+00 0.0000e+00 -1.0000e+00
        5  1    4    4  501    0 -3.2403168701e+01 -5.7729673981e+01 -8.8116680973e+00 6.6950848348e+01 4.7000000000e+00 0.0000e+00 -1.0000e+00
       -5  1    4    4    0  502 +3.7874235707e+00 +2.5880995575e+01 +9.3018563921e+00 2.8156438724e+01 4.7000000000e+00 0.0000e+00 -1.0000e+00
        5  1    4    4  502    0 -1.2149626487e+01 +2.5614037582e+01 +6.4727988235e+00 2.9456399468e+01 4.7000000000e+00 0.0000e+00 -1.0000e+00
       -5  1    4    4    0  501 -8.9848168259e+00 -2.5498838979e+00 +3.6484176374e-01 1.0461928637e+01 4.7000000000e+00 0.0000e+00 -1.0000e+00
</event>
<event>
10      1 +4.6527485e-10 2.40000000e+02 7.81860800e-03 1.03012300e-01
      -11 -1    0    0    0    0 +0.0000000000e+00 +0.0000000000e+00 +1.2000000000e+02 1.2000000000e+02 0.0000000000e+00 0.0000e+00 -1.0000e+00
       11 -1    0    0    0    0 -0.0000000000e+00 -0.0000000000e+00 -1.2000000000e+02 1.2000000000e+02 0.0000000000e+00 0.0000e+00 1.0000e+00
       23  2    1    2    0    0 -5.0690672089e+01 -8.1035719716e+00 +1.9071553753e+00 1.0485549671e+02 9.1410206398e+01 0.0000e+00 0.0000e+00
       25  2    1    2    0    0 +5.0690672089e+01 +8.1035719716e+00 -1.9071553753e+00 1.3514450329e+02 1.2500074964e+02 0.0000e+00 0.0000e+00
      -11  1    3    3    0    0 -4.4950953064e+01 +1.1849676032e+01 -3.7887267198e+01 5.9970392855e+01 0.0000000000e+00 0.0000e+00 1.0000e+00
       11  1    3    3    0    0 -5.7397190246e+00 -1.9953248003e+01 +3.9794422574e+01 4.4885103858e+01 0.0000000000e+00 0.0000e+00 -1.0000e+00
        5  1    4    4  501    0 -9.0582396233e+00 +2.7417283246e+01 +3.9329549995e+01 4.9016962660e+01 4.7000000000e+00 0.0000e+00 -1.0000e+00
       -5  1    4    4    0  501 -1.0095968369e+00 +3.5318034737e-01 +3.2643514220e+00 5.8215128907e+00 4.7000000000e+00 0.0000e+00 1.0000e+00
        5  1    4    4  502    0 +1.9814110978e+01 -1.1811070263e+01 -2.3968877390e+01 3.3596092897e+01 4.7000000000e+00 0.0000e+00 -1.0000e+00
       -5  1    4    4    0  502 +4.0944397571e+01 -7.8558213583e+00 -2.0532179402e+01 4.6709934839e+01 4.7000000000e+00 0.0000e+00 -1.0000e+00
</event>
<event>
10      1 +4.6527485e-10 2.40000000e+02 7.81860800e-03 1.03012300e-01
      -11 -1    0    0    0    0 +0.0000000000e+00 +0.0000000000e+00 +1.2000000000e+02 1.2000000000e+02 0.0000000000e+00 0.0000e+00 -1.0000e+00
       11 -1    0    0    0    0 -0.0000000000e+00 -0.0000000000e+00 -1.2000000000e+02 1.2000000000e+02 0.0000000000e+00 0.0000e+00 1.0000e+00
       23  2    1    2    0    0 +3.9428200045e+01 -2.7031119168e+01 -3.2505539591e+01 1.0227875975e+02 8.4374582840e+01 0.0000e+00 0.0000e+00
       25  2    1    2    0    0 -3.9428200045e+01 +2.7031119168e+01 +3.2505539591e+01 1.3772124025e+02 1.2500106220e+02 0.0000e+00 0.0000e+00
      -13  1    3    3    0    0 +2.1757575359e+01 -2.9917074103e+00 -5.8638699626e+01 6.2616607162e+01 0.0000000000e+00 0.0000e+00 1.0000e+00
       13  1    3    3    0    0 +1.7670624685e+01 -2.4039411758e+01 +2.6133160034e+01 3.9662152587e+01 0.0000000000e+00 0.0000e+00 -1.0000e+00
        5  1    4    4  501    0 +7.2814510977e+00 +8.7393751593e+00 +1.4395611844e+01 1.8939900967e+01 4.7000000000e+00 0.0000e+00 1.0000e+00
       -5  1    4    4    0  501 +2.1620893120e+01 +3.5460722759e+01 +1.1682462473e+01 4.3399260446e+01 4.7000000000e+00 0.0000e+00 1.0000e+00
        5  1    4    4  502    0 -2.6776773166e+01 -3.0810111653e+00 +1.3798510683e+01 3.0642733365e+01 4.7000000000e+00 0.0000e+00 -1.0000e+00
       -5  1    4    4    0  502 -4.1553771096e+01 -1.4087967585e+01 -7.3710454083e+00 4.4739345474e+01 4.7000000000e+00 0.0000e+00 -1.0000e+00
</event>
<event>
10      1 +4.6527485e-10 2.40000000e+02 7.81860800e-03 1.03012300e-01
      -11 -1    0    0    0    0 +0.0000000000e+00 +0.0000000000e+00 +1.2000000000e+02 1.2000000000e+02 0.0000000000e+00 0.0000e+00 1.0000e+00
       11 -1    0    0    0    0 -0.0000000000e+00 -0.0000000000e+00 -1.2000000000e+02 1.2000000000e+02 0.0000000000e+00 0.0000e+00 -1.0000e+00
       23  2    1    2    0    0 -2.7100282760e+00 +6.1123822798e+01 -1.4384593417e+01 1.0008521759e+02 7.7888820033e+01 0.0000e+00 0.0000e+00
       25  2    1    2    0    0 +2.7100282760e+00 -6.1123822798e+01 +1.4384593417e+01 1.3991478241e+02 1.2500305533e+02 0.0000e+00 0.0000e+00
      -11  1    3    3    0    0 +3.4064266306e+01 +2.0383688526e+01 +8.5428412926e+00 4.0606023374e+01 0.0000000000e+00 0.0000e+00 1.0000e+00
       11  1    3    3    0    0 -3.6774294582e+01 +4.0740134272e+01 -2.2927434710e+01 5.9479194218e+01 0.0000000000e+00 0.0000e+00 -1.0000e+00
        5  1    4    4  501    0 +4.7251076017e+00 -1.4996036165e+01 +3.2581282587e+00 1.6730604958e+01 4.7000000000e+00 0.0000e+00 -1.0000e+00
       -5  1    4    4    0  502 -4.0330049291e+00 -4.6322620854e+00 -7.6437958120e+00 1.0873849144e+01 4.7000000000e+00 0.0000e+00 -1.0000e+00
        5  1    4    4  502    0 -2.6784272543e+01 +9.9395795888e+00 -2.5386213565e+01 3.8506393459e+01 4.7000000000e+00 0.0000e+00 -1.0000e+00
       -5  1    4    4    0  501 +2.8802198146e+01 -5.1435104136e+01 +4.4156474535e+01 7.3803934847e+01 4.7000000000e+00 0.0000e+00 -1.0000e+00
</event>
<event>
10      1 +4.6527485e-10 2.40000000e+02 7.81860800e-03 1.03012300e-01
      -11 -1    0    0    0    0 +0.0000000000e+00 +0.0000000000e+00 +1.2000000000e+02 1.2000000000e+02 0.0000000000e+00 0.0000e+00 -1.0000e+00
       11 -1    0    0    0    0 -0.0000000000e+00 -0.0000000000e+00 -1.2000000000e+02 1.2000000000e+02 0.0000000000e+00 0.0000e+00 1.0000e+00
       23  2    1    2    0    0 +3.6731770376e+01 +3.5099672281e+01 +1.7274853379e+00 1.0506222189e+02 9.1944963502e+01 0.0000e+00 0.0000e+00
       25  2    1    2    0    0 -3.6731770376e+01 -3.5099672281e+01 -1.7274853379e+00 1.3493777811e+02 1.2499603916e+02 0.0000e+00 0.0000e+00
      -11  1    3    3    0    0 +5.3632066962e+01 +4.4895419091e+01 -2.2929299595e+01 7.3605366937e+01 0.0000000000e+00 0.0000e+00 1.0000e+00
       11  1    3    3    0    0 -1.6900296585e+01 -9.7957468101e+00 +2.4656784933e+01 3.1456854952e+01 0.0000000000e+00 0.0000e+00 -1.0000e+00
        5  1    4    4  501    0 +5.6226067144e+00 -8.1938323292e+00 +6.7800028467e+00 1.2915534565e+01 4.7000000000e+00 0.0000e+00 -1.0000e+00
       -5  1    4    4    0  501 -1.3080743484e+01 -3.9723937035e+00 +4.8616307986e+01 5.0720027247e+01 4.7000000000e+00 0.0000e+00 -1.0000e+00
        5  1    4    4  502    0 -2.3228104524e+01 -8.4778214634e+00 -2.6279865630e+01 3.6388729492e+01 4.7000000000e+00 0.0000e+00 1.0000e+00
       -5  1    4    4    0  502 -6.0455290833e+00 -1.4455624785e+01 -3.0843930540e+01 3.4913486806e+01 4.7000000000e+00 0.0000e+00 1.0000e+00
</event>
<event>
10      1 +4.6527485e-10 2.40000000e+02 7.81860800e-03 1.03012300e-01
      -11 -1    0    0    0    0 +0.0000000000e+00 +0.0000000000e+00 +1.2000000000e+02 1.2000000000e+02 0.0000000000e+00 0.0000e+00 1.0000e+00
       11 -1    0    0    0    0 -0.0000000000e+00 -0.0000000000e+00 -1.2000000000e+02 1.2000000000e+02 0.0000000000e+00 0.0000e+00 -1.0000e+00
       23  2    1    2    0    0 -2.7127146687e+01 +1.7056183557e+01 +4.1670697111e+01 1.0439671903e+02 9.0196632204e+01 0.0000e+00 0.0000e+00
       25  2    1    2    0    0 +2.7127146687e+01 -1.7056183557e+01 -4.1670697111e+01 1.3560328097e+02 1.2500002931e+02 0.0000e+00 0.0000e+00
      -13  1    3    3    0    0 -3.8506467688e+01 +1.9290207555e+01 +6.5214235763e+01 7.8152138215e+01 0.0000000000e+00 0.0000e+00 1.0000e+00
       13  1    3    3    0    0 +1.1379321002e+01 -2.2340239984e+00 -2.3543538653e+01 2.6244580812e+01 0.0000000000e+00 0.0000e+00 -1.0000e+00
        5  1    4    4  501    0 +5.4102010629e+01 -1.4014080398e+01 -2.2259437465e+01 6.0340654287e+01 4.7000000000e+00 0.0000e+00 -1.0000e+00
       -5  1    4    4    0  502 -1.6255362079e+01 +2.1032079667e+01 -1.5912608099e+01 3.1335064512e+01 4.7000000000e+00 0.0000e+00 1.0000e+00
        5  1    4    4  502    0 -2.1279407811e+01 -1.6810834380e+01 -9.3603430162e+00 2.9071005671e+01 4.7000000000e+00 0.0000e+00 1.0000e+00
       -5  1    4    4    0  501 +1.0559905947e+01 -7.2633484466e+00 +5.8616914701e+00 1.4856556504e+01 4.7000000000e+00 0.0000e+00 -1.0000e+00
</event>
<event>
10      1 +4.6527485e-10 2.40000000e+02 7.81860800e-03 1.03012300e-01
      -11 -1    0    0    0    0 +0.0000000000e+00 +0.0000000000e+00 +1.2000000000e+02 1.2000000000e+02 0.0000000000e+00 0.0000e+00 1.0000e+00
       11 -1    0    0    0    0 -0.0000000000e+00 -0.0000000000e+00 -1.2000000000e+02 1.2000000000e+02 0.0000000000e+00 0.0000e+00 -1.0000e+00
       23  2    1    2    0    0 -4.4045017906e+01 +1.1644462797e+01 -2.0406809220e+01 1.0539876133e+02 9.2827279993e+01 0.0000e+00 0.0000e+00
       25  2    1    2    0    0 +4.4045017906e+01 -1.1644462797e+01 +2.0406809220e+01 1.3460123867e+02 1.2500199388e+02 0.0000e+00 0.0000e+00
      -11  1    3    3    0    0 -3.1968334045e+01 +2.8791808946e+00 -5.7257942723e+01 6.5640963347e+01 0.0000000000e+00 0.0000e+00 -1.0000e+00
       11  1    3    3    0    0 -1.2076683861e+01 +8.7652819021e+00 +3.6851133503e+01 3.9757797982e+01 0.0000000000e+00 0.0000e+00 1.0000e+00
        5  1    4    4  501    0 +3.5945851666e+00 -3.4057530197e+01 -4.3104695800e+00 3.4835420963e+01 4.7000000000e+00 0.0000e+00 1.0000e+00
       -5  1    4    4    0  501 +1.9130555281e+01 -3.0211014767e+01 +1.1684362253e+01 3.7911711645e+01 4.7000000000e+00 0.0000e+00 1.0000e+00
        5  1    4    4  502    0 +2.1140861841e+01 +3.5255766740e+01 +1.4394814284e+01 4.3808741206e+01 4.7000000000e+00 0.0000e+00 -1.0000e+00
       -5  1    4    4    0  502 +1.7901561813e-01 +1.7368315427e+01 -1.3618977372e+00 1.8045364857e+01 4.7000000000e+00 0.0000e+00 -1.0000e+00
</event>
<event>
10      1 +4.6527485e-10 2.40000000e+02 7.81860800e-03 1.03012300e-01
      -11 -1    0    0    0    0 +0.0000000000e+00 +0.0000000000e+00 +1.2000000000e+02 1.2000000000e+02 0.0000000000e+00 0.0000e+00 -1.0000e+00
       11 -1    0    0    0    0 -0.0000000000e+00 -0.0000000000e+00 -1.2000000000e+02 1.2000000000e+02 0.0000000000e+00 0.0000e+00 1.0000e+00
       23  2    1    2    0    0 -3.3798008249e+01 -2.7337920855e+00 +3.8095777139e+01 1.0499501579e+02 9.1776283018e+01 0.0000e+00 0.0000e+00
       25  2    1    2    0    0 +3.3798008249e+01 +2.7337920855e+00 -3.8095777139e+01 1.3500498421e+02 1.2500111417e+02 0.0000e+00 0.0000e+00
      -13  1    3    3    0    0 -5.0566885916e+01 -3.1961370228e+01 +9.0374616603e+00 6.0499709515e+01 0.0000000000e+00 0.0000e+00 -1.0000e+00
       13  1    3    3    0    0 +1.6768877667e+01 +2.9227578142e+01 +2.9058315478e+01 4.4495306277e+01 0.0000000000e+00 0.0000e+00 1.0000e+00
        5  1    4    4  501    0 +2.3885529302e+01 -2.0964089838e+01 -8.9460629077e+00 3.3348667355e+01 4.7000000000e+00 0.0000e+00 -1.0000e+00
       -5  1    4    4    0  502 -4.7139120125e+00 +2.3250920255e+01 -3.0580692580e+01 3.8988395939e+01 4.7000000000e+00 0.0000e+00 1.0000e+00
        5  1    4    4  502    0 +2.7775971931e+00 +5.7110444961e+00 -2.8573545275e+01 2.9645717481e+01 4.7000000000e+00 0.0000e+00 1.0000e+00
       -5  1    4    4    0  501 +1.1848793767e+01 -5.2640828274e+00 +3.0004523624e+01 3.3022203434e+01 4.7000000000e+00 0.0000e+00 -1.0000e+00
</event>
<event>
10      1 +4.6527485e-10 2.40000000e+02 7.81860800e-03 1.03012300e-01
      -11 -1    0    0    0    0 +0.0000000000e+00 +0.0000000000e+00 +1.2000000000e+02 1.2000000000e+02 0.0000000000e+00 0.0000e+00 -1.0000e+00
       11 -1    0    0    0    0 -0.0000000000e+00 -0.0000000000e+00 -1.2000000000e+02 1.2000000000e+02 0.0000000000e+00 0.0000e+00 1.0000e+00
       23  2    1    2    0    0 -1.9048858056e+01 -1.1568513800e+01 +4.7689776300e+01 1.0436283256e+02 9.0114352642e+01 0.0000e+00 0.0000e+00
       25  2    1    2    0    0 +1.9048858056e+01 +1.1568513800e+01 -4.7689776300e+01 1.3563716744e+02 1.2500574756e+02 0.0000e+00 0.0000e+00
      -13  1    3    3    0    0 -4.0883668785e+01 +2.4108473686e+01 +1.0993442399e+01 4.8719078938e+01 0.0000000000e+00 0.0000e+00 -1.0000e+00
       13  1    3    3    0    0 +2.1834810729e+01 -3.5676987486e+01 +3.6696333901e+01 5.5643753624e+01 0.0000000000e+00 0.0000e+00 1.0000e+00
        5  1    4    4  501    0 -2.8486670210e+00 +7.6976210767e+00 -9.7554374624e+00 1.3587745734e+01 4.7000000000e+00 0.0000e+00 1.0000e+00
       -5  1    4    4    0  502 +3.5465010821e+01 -9.0878316327e+00 +2.3737632906e+01 4.3885315224e+01 4.7000000000e+00 0.0000e+00 -1.0000e+00
        5  1    4    4  502    0 +1.2292480193e+00 -8.3986686823e-01 +5.7738481966e+00 7.5923481247e+00 4.7000000000e+00 0.0000e+00 -1.0000e+00
       -5  1    4    4    0  501 -1.4796733763e+01 +1.3798591225e+01 -6.7445819941e+01 7.0571758355e+01 4.7000000000e+00 0.0000e+00 1.0000e+00
</event>
<event>
10      1 +4.6527485e-10 2.40000000e+02 7.81860800e-03 1.03012300e-01
      -11 -1    0    0    0    0 +0.0000000000e+00 +0.0000000000e+00 +1.2000000000e+02 1.2000000000e+02 0.0000000000e+00 0.0000e+00 1.0000e+00
       11 -1    0    0    0    0 -0.0000000000e+00 -0.0000000000e+00 -1.2000000000e+02 1.2000000000e+02 0.0000000000e+00 0.0000e+00 -1.0000e+00
       23  2    1    2    0    0 -7.7481834279e+00 -4.5935627418e+00 -5.0711954586e+01 1.0480247438e+02 9.1272784182e+01 0.0000e+00 0.0000e+00
       25  2    1    2    0    0 +7.7481834279e+00 +4.5935627418e+00 +5.0711954586e+01 1.3519752562e+02 1.2500213371e+02 0.0000e+00 0.0000e+00
      -11  1    3    3    0    0 -6.3291949164e+00 +4.3319977183e+01 -2.3885791267e+01 4.9871937559e+01 0.0000000000e+00 0.0000e+00 1.0000e+00
       11  1    3    3    0    0 -1.4189885115e+00 -4.7913539925e+01 -2.6826163319e+01 5.4930536817e+01 0.0000000000e+00 0.0000e+00 -1.0000e+00
        5  1    4    4  501    0 +2.2621824539e+01 -5.2417342037e+00 +1.5210469436e+01 2.8154415345e+01 4.7000000000e+00 0.0000e+00 1.0000e+00
       -5  1    4    4    0  501 +2.4173237440e+01 -1.5540183636e+01 +4.6299905217e+01 5.4695648263e+01 4.7000000000e+00 0.0000e+00 1.0000e+00
        5  1    4    4  502    0 -2.1891103095e+01 +9.0467941286e+00 -1.4120305297e+01 2.7973878894e+01 4.7000000000e+00 0.0000e+00 -1.0000e+00
       -5  1    4    4    0  502 -1.7155775456e+01 +1.6328686453e+01 +3.3218852294e+00 2.4373583122e+01 4.7000000000e+00 0.0000e+00 -1.0000e+00
</event>
<event>
10      1 +4.6527485e-10 2.40000000e+02 7.81860800e-03 1.03012300e-01
      -11 -1    0    0    0    0 +0.0000000000e+00 +0.0000000000e+00 +1.2000000000e+02 1.2000000000e+02 0.0000000000e+00 0.0000e+00 1.0000e+00
       11 -1    0    0    0    0 -0.0000000000e+00 -0.0000000000e+00 -1.2000000000e+02 1.2000000000e+02 0.0000000000e+00 0.0000e+00 -1.0000e+00
       23  2    1    2    0    0 -4.6192493485e+00 -1.4567533411e+01 -4.5468409509e+01 1.0611184536e+02 9.4650921650e+01 0.0000e+00 0.0000e+00
       25  2    1    2    0    0 +4.6192493485e+00 +1.4567533411e+01 +4.5468409509e+01 1.3388815464e+02 1.2500044478e+02 0.0000e+00 0.0000e+00
      -11  1    3    3    0    0 +3.4659577470e+01 -2.9093313403e+01 -1.3351039778e+00 4.5271289995e+01 0.0000000000e+00 0.0000e+00 1.0000e+00
       11  1    3    3    0    0 -3.9278826818e+01 +1.4525779992e+01 -4.4133305531e+01 6.0840555370e+01 0.0000000000e+00 0.0000e+00 -1.0000e+00
        5  1    4    4  501    0 -1.5314903031e+01 -1.1302075238e+01 -1.4187065106e+01 2.4200123468e+01 4.7000000000e+00 0.0000e+00 -1.0000e+00
       -5  1    4    4    0  501 -2.0893143120e+01 -1.6673444164e+01 +5.9019914230e+00 2.7775000855e+01 4.7000000000e+00 0.0000e+00 -1.0000e+00
        5  1    4    4  502    0 +1.4431300329e+01 +2.2473853944e+01 +3.2146448410e+01 4.2057349960e+01 4.7000000000e+00 0.0000e+00 1.0000e+00
       -5  1    4    4    0  502 +2.6395995171e+01 +2.0069198869e+01 +2.1607034782e+01 3.9855680353e+01 4.7000000000e+00 0.0000e+00 1.0000e+00
</event>
<event>
10      1 +4.6527485e-10 2.40000000e+02 7.81860800e-03 1.03012300e-01
      -11 -1    0    0    0    0 +0.0000000000e+00 +0.0000000000e+00 +1.2000000000e+02 1.2000000000e+02 0.0000000000e+00 0.0000e+00 -1.0000e+00
       11 -1    0    0    0    0 -0.0000000000e+00 -0.0000000000e+00 -1.2000000000e+02 1.2000000000e+02 0.0000000000e+00 0.0000e+00 1.0000e+00
       23  2    1    2    0    0 -9.0906598838e+00 -5.0348354533e+01 +8.9934428081e+00 1.0463301241e+02 9.0827244653e+01 0.0000e+00 0.0000e+00
       25  2    1    2    0    0 +9.0906598838e+00 +5.0348354533e+01 -8.9934428081e+00 1.3536698759e+02 1.2500296962e+02 0.0000e+00 0.0000e+00
      -13  1    3    3    0    0 -2.5586087364e+01 -7.0267251532e+01 +1.8574665627e+01 7.7052921473e+01 0.0000000000e+00 0.0000e+00 1.0000e+00
       13  1    3    3    0    0 +1.6495427480e+01 +1.9918896999e+01 -9.5812228184e+00 2.7580090937e+01 0.0000000000e+00 0.0000e+00 -1.0000e+00
        5  1    4    4  501    0 +1.6857987542e+01 +3.5457580712e+01 -1.0409328391e+01 4.0888578986e+01 4.7000000000e+00 0.0000e+00 -1.0000e+00
       -5  1    4    4    0  502 -6.2815785087e+00 +1.1467897924e+00 -6.6231324589e+00 1.0330984414e+01 4.7000000000e+00 0.0000e+00 1.0000e+00
        5  1    4    4  502    0 -2.3906244414e+01 -2.5917060766e+01 -6.3619439374e+00 3.6135396655e+01 4.7000000000e+00 0.0000e+00 1.0000e+00
       -5  1    4    4    0  501 +2.2420495264e+01 +3.9661044795e+01 +1.4400961979e+01 4.8012027535e+01 4.7000000000e+00 0.0000e+00 -1.0000e+00
</event>
<event>
10      1 +4.6527485e-10 2.40000000e+02 7.81860800e-03 1.03012300e-01
      -11 -1    0    0    0    0 +0.0000000000e+00 +0.0000000000e+00 +1.2000000000e+02 1.2000000000e+02 0.0000000000e+00 0.0000e+00 1.0000e+00
       11 -1    0    0    0    0 -0.0000000000e+00 -0.0000000000e+00 -1.2000000000e+02 1.2000000000e+02 0.0000000000e+00 0.0000e+00 -1.0000e+00
       23  2    1    2    0    0 -1.2382310397e+01 -5.1182765888e+01 -1.8020207896e+01 1.0317031516e+02 8.6869953966e+01 0.0000e+00 0.0000e+00
       25  2    1    2    0    0 +1.2382310397e+01 +5.1182765888e+01 +1.8020207896e+01 1.3682968484e+02 1.2499855050e+02 0.0000e+00 0.0000e+00
      -11  1    3    3    0    0 -1.8324738069e+01 -1.8025611776e+01 -5.0317703197e+01 5.6503008418e+01 0.0000000000e+00 0.0000e+00 -1.0000e+00
       11  1    3    3    0    0 +5.9424276724e+00 -3.3157154112e+01 +3.2297495301e+01 4.6667306738e+01 0.0000000000e+00 0.0000e+00 1.0000e+00
        5  1    4    4  501    0 +2.8986182411e+01 -2.0589332578e+01 -1.8390387254e+01 4.0304041114e+01 4.7000000000e+00 0.0000e+00 -1.0000e+00
       -5  1    4    4    0  501 +3.2631035736e+00 +2.0225813536e+00 -2.0296966672e+00 6.3990896872e+00 4.7000000000e+00 0.0000e+00 -1.0000e+00
        5  1    4    4  502    0 -4.9135771368e+00 +5.7494300891e+01 +1.5854342096e+01 6.0026561109e+01 4.7000000000e+00 0.0000e+00 -1.0000e+00
       -5  1    4    4    0  502 -1.4953398451e+01 +1.2255216221e+01 +2.2585949720e+01 3.0099992934e+01 4.7000000000e+00 0.0000e+00 -1.0000e+00
</event>
<event>
10      1 +4.6527485e-10 2.40000000e+02 7.81860800e-03 1.03012300e-01
      -11 -1    0    0    0    0 +0.0000000000e+00 +0.0000000000e+00 +1.2000000000e+02 1.2000000000e+02 0.0000000000e+00 0.0000e+00 1.0000e+00
       11 -1    0    0    0    0 -0.0000000000e+00 -0.0000000000e+00 -1.2000000000e+02 1.2000000000e+02 0.0000000000e+00 0.0000e+00 -1.0000e+00
       23  2    1    2    0    0 -4.9671061342e+01 -1.0778084816e+01 -2.8489795932e+00 1.0503180163e+02 9.1870458915e+01 0.0000e+00 0.0000e+00
       25  2    1    2    0    0 +4.9671061342e+01 +1.0778084816e+01 +2.8489795932e+00 1.3496819837e+02 1.2499966576e+02 0.0000e+00 0.0000e+00
      -13  1    3    3    0    0 -3.1707653910e+01 +3.9934317134e+01 -4.6398328761e+00 5.1202080529e+01 0.0000000000e+00 0.0000e+00 -1.0000e+00
       13  1    3    3    0    0 -1.7963407432e+01 -5.0712401949e+01 +1.7908532830e+00 5.3829721098e+01 0.0000000000e+00 0.0000e+00 1.0000e+00
        5  1    4    4  501    0 -5.7133118185e+00 +2.0336778689e+01 +6.7451297951e+00 2.2667449687e+01 4.7000000000e+00 0.0000e+00 1.0000e+00
       -5  1    4    4    0  501 -1.6556130115e+01 +1.1625381439e+01 +2.2061034112e+01 3.0299078601e+01 4.7000000000e+00 0.0000e+00 1.0000e+00
        5  1    4    4  502    0 +6.9186834693e+01 -1.9221531563e+01 -2.3377291347e+01 7.5662891309e+01 4.7000000000e+00 0.0000e+00 1.0000e+00
       -5  1    4    4    0  502 +2.7536685827e+00 -1.9625437488e+00 -2.5798929673e+00 6.3387787745e+00 4.7000000000e+00 0.0000e+00 1.0000e+00
</event>
<event>
10      1 +4.6527485e-10 2.40000000e+02 7.81860800e-03 1.03012300e-01
      -11 -1    0    0    0    0 +0.0000000000e+00 +0.0000000000e+00 +1.2000000000e+02 1.2000000000e+02 0.0000000000e+00 0.0000e+00 -1.0000e+00
       11 -1    0    0    0    0 -0.0000000000e+00 -0.0000000000e+00 -1.2000000000e+02 1.2000000000e+02 0.0000000000e+00 0.0000e+00 1.0000e+00
       23  2    1    2    0    0 +3.2062786785e+01 -6.5305015202e+00 -3.6869660078e+01 1.0563121416e+02 9.3423293799e+01 0.0000e+00 0.0000e+00
       25  2    1    2    0    0 -3.2062786785e+01 +6.5305015202e+00 +3.6869660078e+01 1.3436878584e+02 1.2499971611e+02 0.0000e+00 0.0000e+00
      -13  1    3    3    0    0 +4.3407527032e+01 -1.0882498806e+01 -6.2731195727e+01 7.7057414313e+01 0.0000000000e+00 0.0000e+00 1.0000e+00
       13  1    3    3    0    0 -1.1344740246e+01 +4.3519972859e+00 +2.5861535649e+01 2.8573799848e+01 0.0000000000e+00 0.0000e+00 -1.0000e+00
        5  1    4    4  501    0 +2.2455795604e+00 -2.1126225533e+00 -4.3673511291e+00 7.1182552286e+00 4.7000000000e+00 0.0000e+00 1.0000e+00
       -5  1    4    4    0  501 -2.0171876438e+01 -4.6165431938e+01 -4.6572173262e+00 5.0812708827e+01 4.7000000000e+00 0.0000e+00 1.0000e+00
        5  1    4    4  502    0 -6.4366045939e+00 +6.7621540608e+00 +1.6077589042e+01 1.9176430211e+01 4.7000000000e+00 0.0000e+00 1.0000e+00
       -5  1    4    4    0  502 -7.6998853137e+00 +4.8046401951e+01 +2.9816639491e+01 5.7261391573e+01 4.7000000000e+00 0.0000e+00 1.0000e+00
</event>
<event>
10      1 +4.6527485e-10 2.40000000e+02 7.81860800e-03 1.03012300e-01
      -11 -1    0    0    0    0 +0.0000000000e+00 +0.0000000000e+00 +1.2000000000e+02 1.2000000000e+02 0.0000000000e+00 0.0000e+00 -1.0000e+00
       11 -1    0    0    0    0 -0.0000000000e+00 -0.0000000000e+00 -1.2000000000e+02 1.2000000000e+02 0.0000000000e+00 0.0000e+00 1.0000e+00
       23  2    1    2    0    0 +2.1550824552e+01 +4.7931585857e+01 -7.1175510469e+00 1.0422066434e+02 8.9718517489e+01 0.0000e+00 0.0000e+00
       25  2    1    2    0    0 -2.1550824552e+01 -4.7931585857e+01 +7.1175510469e+00 1.3577933566e+02 1.2499397385e+02 0.0000e+00 0.0000e+00
      -13  1    3    3    0    0 -2.6518557203e+01 +4.1828128788e+01 -2.1032425572e+01 5.3806961998e+01 0.0000000000e+00 0.0000e+00 1.0000e+00
       13  1    3    3    0    0 +4.8069381755e+01 +6.1034570692e+00 +1.3914874525e+01 5.0413702339e+01 0.0000000000e+00 0.0000e+00 -1.0000e+00
        5  1    4    4  501    0 -1.9558909277e+01 +3.7370084088e+00 +2.0036637912e+01 2.8636917132e+01 4.7000000000e+00 0.0000e+00 1.0000e+00
       -5  1    4    4    0  502 +1.8849247949e+01 -3.9665508423e+01 -1.3767205368e+01 4.6263080856e+01 4.7000000000e+00 0.0000e+00 1.0000e+00
        5  1    4    4  502    0 +1.3241412249e+01 -2.0536670179e+01 +4.3443437022e+00 2.5259713827e+01 4.7000000000e+00 0.0000e+00 1.0000e+00
       -5  1    4    4    0  501 -3.4082575472e+01 +8.5335843360e+00 -3.4962251992e+00 3.5619623848e+01 4.7000000000e+00 0.0000e+00 1.0000e+00
</event>
<event>
10      1 +4.6527485e-10 2.40000000e+02 7.81860800e-03 1.03012300e-01
      -11 -1    0    0    0    0 +0.0000000000e+00 +0.0000000000e+00 +1.2000000000e+02 1.2000000000e+02 0.0000000000e+00 0.0000e+00 1.0000e+00
       11 -1    0    0    0    0 -0.0000000000e+00 -0.0000000000e+00 -1.2000000000e+02 1.2000000000e+02 0.0000000000e+00 0.0000e+00 -1.0000e+00
       23  2    1    2    0    0 -4.3722770600e+01 +1.2914061088e+01 +1.1453267937e+01 1.0645637366e+02 9.5516116461e+01 0.0000e+00 0.0000e+00
       25  2    1    2    0    0 +4.3722770600e+01 -1.2914061088e+01 -1.1453267937e+01 1.3354362634e+02 1.2499707655e+02 0.0000e+00 0.0000e+00
      -13  1    3    3    0    0 +1.3921639961e+01 +3.8225249638e+01 +1.5101933399e+01 4.3394125886e+01 0.0000000000e+00 0.0000e+00 1.0000e+00
       13  1    3    3    0    0 -5.7644410561e+01 -2.5311188549e+01 -3.6486654624e+00 6.3062247775e+01 0.0000000000e+00 0.0000e+00 -1.0000e+00
        5  1    4    4  501    0 +3.4140873530e+01 -9.9018542127e-01 -4.2340475971e+01 5.4602066060e+01 4.7000000000e+00 0.0000e+00 -1.0000e+00
       -5  1    4    4    0  501 +2.0082630826e+01 +4.4333744431e+00 -5.8883628002e+00 2.1902732394e+01 4.7000000000e+00 0.0000e+00 -1.0000e+00
        5  1    4    4  502    0 -2.1256225925e+01 -2.1651892965e+01 +2.6691612762e+01 4.0683704371e+01 4.7000000000e+00 0.0000e+00 1.0000e+00
       -5  1    4    4    0  502 +1.0755492169e+01 +5.2946428551e+00 +1.0083958072e+01 1.6355123514e+01 4.7000000000e+00 0.0000e+00 1.0000e+00
</event>
<event>
10      1 +4.6527485e-10 2.40000000e+02 7.81860800e-03 1.03012300e-01
      -11 -1    0    0    0    0 +0.0000000000e+00 +0.0000000000e+00 +1.2000000000e+02 1.2000000000e+02 0.0000000000e+00 0.0000e+00 1.0000e+00
       11 -1    0    0    0    0 -0.0000000000e+00 -0.0000000000e+00 -1.2000000000e+02 1.2000000000e+02 0.0000000000e+00 0.0000e+00 -1.0000e+00
       23  2    1    2    0    0 -4.7735245404e+01 -7.5442755516e-01 -1.0058586106e+01 1.0581488444e+02 9.3895643139e+01 0.0000e+00 0.0000e+00
       25  2    1    2    0    0 +4.7735245404e+01 +7.5442755516e-01 +1.0058586106e+01 1.3418511556e+02 1.2500098907e+02 0.0000e+00 0.0000e+00
      -13  1    3    3    0    0 +2.7647995967e+00 +2.3491458118e+01 -3.6795548068e+01 4.3742485971e+01 0.0000000000e+00 0.0000e+00 -1.0000e+00
       13  1    3    3    0    0 -5.0500045001e+01 -2.4245885673e+01 +2.6736961961e+01 6.2072398472e+01 0.0000000000e+00 0.0000e+00 1.0000e+00
        5  1    4    4  501    0 +3.0773677547e+01 -2.9710005018e+00 +1.5583223041e+01 3.4939560875e+01 4.7000000000e+00 0.0000e+00 -1.0000e+00
       -5  1    4    4    0  502 -2.5836478334e+01 +9.7848992020e+00 +5.5880437383e-01 2.8029807838e+01 4.7000000000e+00 0.0000e+00 -1.0000e+00
        5  1    4    4  502    0 -1.2751436341e+01 -3.1489654663e+00 -6.5004898891e+00 1.5390304775e+01 4.7000000000e+00 0.0000e+00 -1.0000e+00
       -5  1    4    4    0  501 +5.5549482532e+01 -2.9105056787e+00 +4.1704857997e-01 5.5825442070e+01 4.7000000000e+00 0.0000e+00 -1.0000e+00
</event>
<event>
10      1 +4.6527485e-10 2.40000000e+02 7.81860800e-03 1.03012300e-01
      -11 -1    0    0    0    0 +0.0000000000e+00 +0.0000000000e+00 +1.2000000000e+02 1.2000000000e+02 0.0000000000e+00 0.0000e+00 1.0000e+00
       11 -1    0    0    0    0 -0.0000000000e+00 -0.0000000000e+00 -1.2000000000e+02 1.2000000000e+02 0.0000000000e+00 0.0000e+00 -1.0000e+00
       23  2    1    2    0    0 +4.3295070372e+01 -3.0140618794e+00 +2.6938561180e+01 1.0496294583e+02 9.1695072008e+01 0.0000e+00 0.0000e+00
       25  2    1    2    0    0 -4.3295070372e+01 +3.0140618794e+00 -2.6938561180e+01 1.3503705417e+02 1.2500308890e+02 0.0000e+00 0.0000e+00
      -11  1    3    3    0    0 +3.9391863861e+00 -3.3664405105e+01 +4.0942232479e+01 5.3151441757e+01 0.0000000000e+00 0.0000e+00 1.0000e+00
       11  1    3    3    0    0 +3.9355883986e+01 +3.0650343225e+01 -1.4003671299e+01 5.1811504070e+01 0.0000000000e+00 0.0000e+00 -1.0000e+00
        5  1    4    4  501    0 -1.8529958136e+00 -7.8964912694e+00 -5.0990767518e+00 1.0671398764e+01 4.7000000000e+00 0.0000e+00 1.0000e+00
       -5  1    4    4    0  501 -4.8962581519e+00 -2.2497945378e+01 -5.6040591222e+01 6.0768155762e+01 4.7000000000e+00 0.0000e+00 1.0000e+00
        5  1    4    4  502    0 -6.6412260161e-01 +3.1541201936e+00 +6.9940054644e-01 5.7418371755e+00 4.7000000000e+00 0.0000e+00 1.0000e+00
       -5  1    4    4    0  502 -3.5881693805e+01 +3.0254378333e+01 +3.3501706248e+01 5.7855662473e+01 4.7000000000e+00 0.0000e+00 1.0000e+00
</event>
<event>
10      1 +4.6527485e-10 2.40000000e+02 7.81860800e-03 1.03012300e-01
      -11 -1    0    0    0    0 +0.0000000000e+00 +0.0000000000e+00 +1.2000000000e+02 1.2000000000e+02 0.0000000000e+00 0.0000e+00 -1.0000e+00
       11 -1    0    0    0    0 -0.0000000000e+00 -0.0000000000e+00 -1.2000000000e+02 1.2000000000e+02 0.0000000000e+00 0.0000e+00 1.0000e+00
       23  2    1    2    0    0 -2.1377379717e+01 +4.5244691950e+01 +1.6935268637e+01 1.0429809551e+02 8.9928943557e+01 0.0000e+00 0.0000e+00
       25  2    1    2    0    0 +2.1377379717e+01 -4.5244691950e+01 -1.6935268637e+01 1.3570190449e+02 1.2499651614e+02 0.0000e+00 0.0000e+00
      -13  1    3    3    0    0 -3.2521593614e+01 +5.4966295162e+01 +4.1113522100e+01 7.5955706530e+01 0.0000000000e+00 0.0000e+00 -1.0000e+00
       13  1    3    3    0    0 +1.1144213897e+01 -9.7216032117e+00 -2.4178253463e+01 2.8342388977e+01 0.0000000000e+00 0.0000e+00 1.0000e+00
        5  1    4    4  501    0 +2.0938381837e+01 -2.0187575491e+01 -1.9523561908e+01 3.5344214629e+01 4.7000000000e+00 0.0000e+00 -1.0000e+00
       -5  1    4    4    0  501 +1.7717853615e+01 -1.0184076636e+01 -4.1789404747e+01 4.6755556919e+01 4.7000000000e+00 0.0000e+00 -1.0000e+00
        5  1    4    4  502    0 -3.1552538617e+00 +1.2254392681e+00 +2.4524212911e+00 6.2898091005e+00 4.7000000000e+00 0.0000e+00 1.0000e+00
       -5  1    4    4    0  502 -1.4123601872e+01 -1.6098479092e+01 +4.1925276727e+01 4.7312323845e+01 4.7000000000e+00 0.0000e+00 1.0000e+00
</event>
<event>
10      1 +4.6527485e-10 2.40000000e+02 7.81860800e-03 1.03012300e-01
      -11 -1    0    0    0    0 +0.0000000000e+00 +0.0000000000e+00 +1.2000000000e+02 1.2000000000e+02 0.0000000000e+00 0.0000e+00 -1.0000e+00
       11 -1    0    0    0    0 -0.0000000000e+00 -0.0000000000e+00 -1.2000000000e+02 1.2000000000e+02 0.0000000000e+00 0.0000e+00 1.0000e+00
       23  2    1    2    0    0 +4.3184007682e+01 -2.1147679890e+01 +1.4428065276e+01 1.0528418065e+02 9.2544620284e+01 0.0000e+00 0.0000e+00
       25  2    1    2    0    0 -4.3184007682e+01 +2.1147679890e+01 -1.4428065276e+01 1.3471581935e+02 1.2501239951e+02 0.0000e+00 0.0000e+00
      -11  1    3    3    0    0 +2.7101913218e+01 -5.7764566589e+01 +3.8831266549e+00 6.3924467349e+01 0.0000000000e+00 0.0000e+00 1.0000e+00
       11  1    3    3    0    0 +1.6082094464e+01 +3.6616886699e+01 +1.0544938621e+01 4.1359713301e+01 0.0000000000e+00 0.0000e+00 -1.0000e+00
        5  1    4    4  501    0 +1.8701237073e+01 -5.5195393426e+00 +1.1005277589e+01 2.2878105634e+01 4.7000000000e+00 0.0000e+00 1.0000e+00
       -5  1    4    4    0  501 +2.2746819928e+00 -3.1886134731e+00 -4.4935606539e+00 7.5910158345e+00 4.7000000000e+00 0.0000e+00 1.0000e+00
        5  1    4    4  502    0 -4.8276378774e+01 +3.6863341386e+01 -4.3891751623e+01 7.5087219593e+01 4.7000000000e+00 0.0000e+00 1.0000e+00
       -5  1    4    4    0  502 -1.5883547974e+01 -7.0075086806e+00 +2.2951969412e+01 2.9159478288e+01 4.7000000000e+00 0.0000e+00 1.0000e+00
</event>
<event>
10      1 +4.6527485e-10 2.40000000e+02 7.81860800e-03 1.03012300e-01
      -11 -1    0    0    0    0 +0.0000000000e+00 +0.0000000000e+00 +1.2000000000e+02 1.2000000000e+02 0.0000000000e+00 0.0000e+00 -1.0000e+00
       11 -1    0    0    0    0 -0.0000000000e+00 -0.0000000000e+00 -1.2000000000e+02 1.2000000000e+02 0.0000000000e+00 0.0000e+00 1.0000e+00
       23  2    1    2    0    0 +2.6466182050e+01 +7.0045826590e+00 -4.4633861330e+01 1.0447672061e+02 9.0408410011e+01 0.0000e+00 0.0000e+00
       25  2    1    2    0    0 -2.6466182050e+01 -7.0045826590e+00 +4.4633861330e+01 1.3552327939e+02 1.2499941884e+02 0.0000e+00 0.0000e+00
      -11  1    3    3    0    0 +3.3211541123e+01 +4.1100079871e+01 -7.0903984188e+00 5.3315070842e+01 0.0000000000e+00 0.0000e+00 -1.0000e+00
       11  1    3    3    0    0 -6.7453590726e+00 -3.4095497212e+01 -3.7543462911e+01 5.1161649763e+01 0.0000000000e+00 0.0000e+00 1.0000e+00
        5  1    4    4  501    0 +2.2769757159e+01 -6.9548054096e+00 +7.1969641927e+00 2.5312397219e+01 4.7000000000e+00 0.0000e+00 1.0000e+00
       -5  1    4    4    0  501 +1.7922668457e+01 -1.1873497970e+01 +2.4385544162e+01 3.2847325047e+01 4.7000000000e+00 0.0000e+00 1.0000e+00
        5  1    4    4  502    0 -6.3954716321e+00 +7.2062641723e+00 +1.2196691815e+01 1.6238275523e+01 4.7000000000e+00 0.0000e+00 1.0000e+00
       -5  1    4    4    0  502 -6.0763136034e+01 +4.6174565483e+00 +8.5466115991e-01 6.1125281606e+01 4.7000000000e+00 0.0000e+00 1.0000e+00
</event>
<event>
10      1 +4.6527485e-10 2.40000000e+02 7.81860800e-03 1.03012300e-01
      -11 -1    0    0    0    0 +0.0000000000e+00 +0.0000000000e+00 +1.2000000000e+02 1.2000000000e+02 0.0000000000e+00 0.0000e+00 -1.0000e+00
       11 -1    0    0    0    0 -0.0000000000e+00 -0.0000000000e+00 -1.2000000000e+02 1.2000000000e+02 0.0000000000e+00 0.0000e+00 1.0000e+00
       23  2    1    2    0    0 -2.8583875022e+01 +3.1105280143e+01 -2.1525295927e+01 1.0631510851e+02 9.5157698418e+01 0.0000e+00 0.0000e+00
       25  2    1    2    0    0 +2.8583875022e+01 -3.1105280143e+01 +2.1525295927e+01 1.3368489149e+02 1.2499494184e+02 0.0000e+00 0.0000e+00
      -13  1    3    3    0    0 +3.4679489874e+01 +2.7576239736e+00 -7.1294670283e+00 3.5511981190e+01 0.0000000000e+00 0.0000e+00 1.0000e+00
       13  1    3    3    0    0 -6.3263364896e+01 +2.8347656170e+01 -1.4395828899e+01 7.0803127318e+01 0.0000000000e+00 0.0000e+00 -1.0000e+00
        5  1    4    4  501    0 +1.2511864097e+01 -8.1977912137e+00 +4.5323392546e+01 4.7958841060e+01 4.7000000000e+00 0.0000e+00 1.0000e+00
       -5  1    4    4    0  502 +6.8610709095e-01 -7.1976089220e+00 -2.6486785493e+01 2.7855271008e+01 4.7000000000e+00 0.0000e+00 -1.0000e+00
        5  1    4    4  502    0 +4.9204188797e+00 -2.1777126727e+01 -2.0904208885e+01 3.0943977112e+01 4.7000000000e+00 0.0000e+00 -1.0000e+00
       -5  1    4    4    0  501 +1.0465484955e+01 +6.0672467190e+00 +2.3592897759e+01 2.6926802312e+01 4.7000000000e+00 0.0000e+00 1.0000e+00
</event>
<event>
10      1 +4.6527485e-10 2.40000000e+02 7.81860800e-03 1.03012300e-01
      -11 -1    0    0    0    0 +0.0000000000e+00 +0.0000000000e+00 +1.2000000000e+02 1.2000000000e+02 0.0000000000e+00 0.0000e+00 1.0000e+00
       11 -1    0    0    0    0 -0.0000000000e+00 -0.0000000000e+00 -1.2000000000e+02 1.2000000000e+02 0.0000000000e+00 0.0000e+00 -1.0000e+00
       23  2    1    2    0    0 +7.1874936590e-01 -4.8084802637e+01 -1.4351362191e+01 1.0530108717e+02 9.2572633741e+01 0.0000e+00 0.0000e+00
       25  2    1    2    0    0 -7.1874936590e-01 +4.8084802637e+01 +1.4351362191e+01 1.3469891283e+02 1.2500068270e+02 0.0000e+00 0.0000e+00
      -11  1    3    3    0    0 +1.0168539731e+01 +2.0054664579e+01 -2.7230606403e+01 3.5314227964e+01 0.0000000000e+00 0.0000e+00 -1.0000e+00
       11  1    3    3    0    0 -9.4497903654e+00 -6.8139467216e+01 +1.2879244212e+01 6.9986859209e+01 0.0000000000e+00 0.0000e+00 1.0000e+00
        5  1    4    4  501    0 -2.4944263560e+01 -1.5641404832e+01 +3.0517721230e+01 4.2664870077e+01 4.7000000000e+00 0.0000e+00 1.0000e+00
       -5  1    4    4    0  502 -5.2143110495e+00 +1.6679049479e+01 -1.3169260995e+01 2.2380776716e+01 4.7000000000e+00 0.0000e+00 -1.0000e+00
        5  1    4    4  502    0 +2.9138029138e+01 +4.8343562708e+01 -1.3361202372e+01 5.8195674463e+01 4.7000000000e+00 0.0000e+00 -1.0000e+00
       -5  1    4    4    0  501 +3.0179610559e-01 -1.2964047180e+00 +1.0364104328e+01 1.1457591571e+01 4.7000000000e+00 0.0000e+00 1.0000e+00
</event>
<event>
10      1 +4.6527485e-10 2.40000000e+02 7.81860800e-03 1.03012300e-01
      -11 -1    0    0    0    0 +0.0000000000e+00 +0.0000000000e+00 +1.2000000000e+02 1.2000000000e+02 0.0000000000e+00 0.0000e+00 1.0000e+00
       11 -1    0    0    0    0 -0.0000000000e+00 -0.0000000000e+00 -1.2000000000e+02 1.2000000000e+02 0.0000000000e+00 0.0000e+00 -1.0000e+00
       23  2    1    2    0    0 +2.6503862622e+01 +1.9199368717e+01 +6.2384023847e+01 9.6515749963e+01 6.5973123819e+01 0.0000e+00 0.0000e+00
       25  2    1    2    0    0 -2.6503862622e+01 -1.9199368717e+01 -6.2384023847e+01 1.4348425004e+02 1.2499957234e+02 0.0000e+00 0.0000e+00
      -13  1    3    3    0    0 +1.5756174212e+01 -3.3172203042e+00 +6.8877460217e+01 7.0734471810e+01 0.0000000000e+00 0.0000e+00 1.0000e+00
       13  1    3    3    0    0 +1.0747688410e+01 +2.2516589021e+01 -6.4934363696e+00 2.5781278152e+01 0.0000000000e+00 0.0000e+00 -1.0000e+00
        5  1    4    4  501    0 -2.4243923551e+01 -5.3867844313e+01 -1.6520779911e+01 6.1518604088e+01 4.7000000000e+00 0.0000e+00 -1.0000e+00
       -5  1    4    4    0  502 -2.3074116005e+00 +2.7217447385e+00 +1.5375651887e+00 6.0980447215e+00 4.7000000000e+00 0.0000e+00 -1.0000e+00
        5  1    4    4  502    0 +1.3270632953e+01 +3.6682136777e+01 -4.6713855597e+01 6.1040668101e+01 4.7000000000e+00 0.0000e+00 -1.0000e+00
       -5  1    4    4    0  501 -1.3223160423e+01 -4.7354059189e+00 -6.8695352712e-01 1.4826933127e+01 4.7000000000e+00 0.0000e+00 -1.0000e+00
</event>
<event>
10      1 +4.6527485e-10 2.40000000e+02 7.81860800e-03 1.03012300e-01
      -11 -1    0    0    0    0 +0.0000000000e+00 +0.0000000000e+00 +1.2000000000e+02 1.2000000000e+02 0.0000000000e+00 0.0000e+00 -1.0000e+00
       11 -1    0    0    0    0 -0.0000000000e+00 -0.0000000000e+00 -1.2000000000e+02 1.2000000000e+02 0.0000000000e+00 0.0000e+00 1.0000e+00
       23  2    1    2    0    0 +5.0105146588e+01 +9.0094810723e+00 -4.1417053076e+00 1.0496569573e+02 9.1700311305e+01 0.0000e+00 0.0000e+00
       25  2    1    2    0    0 -5.0105146588e+01 -9.0094810723e+00 +4.1417053076e+00 1.3503430427e+02 1.2500165256e+02 0.0000e+00 0.0000e+00
      -13  1    3    3    0    0 +6.1621950655e+01 +3.6200484382e+01 -1.5841236878e+01 7.3203037217e+01 0.0000000000e+00 0.0000e+00 1.0000e+00
       13  1    3    3    0    0 -1.1516804066e+01 -2.7191003309e+01 +1.1699531571e+01 3.1762658513e+01 0.0000000000e+00 0.0000e+00 -1.0000e+00
        5  1    4    4  501    0 -6.4843829684e+01 -2.3988886325e+01 +1.3088503456e+01 7.0523668637e+01 4.7000000000e+00 0.0000e+00 1.0000e+00
       -5  1    4    4    0  501 -1.2388745436e+01 -5.6985758630e+00 +1.0735754998e+01 1.7980578849e+01 4.7000000000e+00 0.0000e+00 -1.0000e+00
        5  1    4    4  502    0 +7.3000565211e+00 -2.1557958179e+00 -1.2016239077e+01 1.4980596863e+01 4.7000000000e+00 0.0000e+00 1.0000e+00
       -5  1    4    4    0  502 +1.9827372011e+01 +2.2833776933e+01 -7.6663140704e+00 3.1549459921e+01 4.7000000000e+00 0.0000e+00 1.0000e+00
</event>
<event>
10      1 +4.6527485e-10 2.40000000e+02 7.81860800e-03 1.03012300e-01
      -11 -1    0    0    0    0 +0.0000000000e+00 +0.0000000000e+00 +1.2000000000e+02 1.2000000000e+02 0.0000000000e+00 0.0000e+00 -1.0000e+00
       11 -1    0    0    0    0 -0.0000000000e+00 -0.0000000000e+00 -1.2000000000e+02 1.2000000000e+02 0.0000000000e+00 0.0000e+00 1.0000e+00
       23  2    1    2    0    0 -2.4033374176e+01 +1.2146756873e+01 +4.4814813310e+01 1.0449356418e+02 9.0473148982e+01 0.0000e+00 0.0000e+00
       25  2    1    2    0    0 +2.4033374176e+01 -1.2146756873e+01 -4.4814813310e+01 1.3550643582e+02 1.2501391874e+02 0.0000e+00 0.0000e+00
      -11  1    3    3    0    0 +1.6473057656e+01 -3.0950757145e+01 +1.9895472147e+01 4.0313035216e+01 0.0000000000e+00 0.0000e+00 1.0000e+00
       11  1    3    3    0    0 -4.0506431832e+01 +4.3097514018e+01 +2.4919341164e+01 6.4180528966e+01 0.0000000000e+00 0.0000e+00 -1.0000e+00
        5  1    4    4  501    0 +1.1004369679e+01 +6.4062578833e+00 -1.2330405466e+01 1.8337535032e+01 4.7000000000e+00 0.0000e+00 -1.0000e+00
       -5  1    4    4    0  502 +1.5404155590e+01 -1.1447641268e+01 +3.0306459941e+01 3.6178833787e+01 4.7000000000e+00 0.0000e+00 -1.0000e+00
        5  1    4    4  502    0 -8.5462645214e+00 -2.6923322808e+01 -2.7042974997e+01 3.9386754690e+01 4.7000000000e+00 0.0000e+00 -1.0000e+00
       -5  1    4    4    0  501 +6.1711134278e+00 +1.9817949320e+01 -3.5747892789e+01 4.1603312308e+01 4.7000000000e+00 0.0000e+00 1.0000e+00
</event>
<event>
10      1 +4.6527485e-10 2.40000000e+02 7.81860800e-03 1.03012300e-01
      -11 -1    0    0    0    0 +0.0000000000e+00 +0.0000000000e+00 +1.2000000000e+02 1.2000000000e+02 0.0000000000e+00 0.0000e+00 1.0000e+00
       11 -1    0    0    0    0 -0.0000000000e+00 -0.0000000000e+00 -1.2000000000e+02 1.2000000000e+02 0.0000000000e+00 0.0000e+00 -1.0000e+00
       23  2    1    2    0    0 +3.4340689486e+01 +1.6301717354e+01 +5.5021802538e+01 9.8233766250e+01 7.1954465700e+01 0.0000e+00 0.0000e+00
       25  2    1    2    0    0 -3.4340689486e+01 -1.6301717354e+01 -5.5021802538e+01 1.4176623375e+02 1.2500094933e+02 0.0000e+00 0.0000e+00
      -13  1    3    3    0    0 +4.8622036537e+01 +3.3439449818e+01 +3.8236255372e+01 7.0315791014e+01 0.0000000000e+00 0.0000e+00 -1.0000e+00
       13  1    3    3    0    0 -1.4281347051e+01 -1.7137732464e+01 +1.6785547166e+01 2.7917975236e+01 0.0000000000e+00 0.0000e+00 1.0000e+00
        5  1    4    4  501    0 -7.7739804979e-01 -2.3901137536e+01 -1.8726150195e+01 3.0734791757e+01 4.7000000000e+00 0.0000e+00 -1.0000e+00
       -5  1    4    4    0  502 -8.5452298571e+00 -2.5049706444e+00 +1.3058031503e+01 1.6489330428e+01 4.7000000000e+00 0.0000e+00 -1.0000e+00
        5  1    4    4  502    0 -6.9886714030e+00 +4.1994131973e+01 -1.9541473598e+01 4.7077678771e+01 4.7000000000e+00 0.0000e+00 -1.0000e+00
       -5  1    4    4    0  501 -1.8029390176e+01 -3.1889741146e+01 -2.9812210247e+01 4.7464432793e+01 4.7000000000e+00 0.0000e+00 -1.0000e+00
</event>
<event>
10      1 +4.6527485e-10 2.40000000e+02 7.81860800e-03 1.03012300e-01
      -11 -1    0    0    0    0 +0.0000000000e+00 +0.0000000000e+00 +1.2000000000e+02 1.2000000000e+02 0.0000000000e+00 0.0000e+00 -1.0000e+00
       11 -1    0    0    0    0 -0.0000000000e+00 -0.0000000000e+00 -1.2000000000e+02 1.2000000000e+02 0.0000000000e+00 0.0000e+00 1.0000e+00
       23  2    1    2    0    0 +5.1352958463e+01 -4.0475932701e+00 -4.6418386193e+00 1.0472182578e+02 9.1058249350e+01 0.0000e+00 0.0000e+00
       25  2    1    2    0    0 -5.1352958463e+01 +4.0475932701e+00 +4.6418386193e+00 1.3527817422e+02 1.2500051360e+02 0.0000e+00 0.0000e+00
      -13  1    3    3    0    0 -1.9131229212e+01 -2.4100390816e+01 +3.5915613461e+00 3.0979542952e+01 0.0000000000e+00 0.0000e+00 -1.0000e+00
       13  1    3    3    0    0 +7.0484187675e+01 +2.0052797546e+01 -8.2333999654e+00 7.3742282827e+01 0.0000000000e+00 0.0000e+00 1.0000e+00
        5  1    4    4  501    0 +3.0076237124e+01 +4.0799461855e+00 +4.6597356887e+00 3.1064918108e+01 4.7000000000e+00 0.0000e+00 -1.0000e+00
       -5  1    4    4    0  502 -6.2007126560e+01 +1.4881022065e-01 -7.5195008537e+00 6.2638157554e+01 4.7000000000e+00 0.0000e+00 1.0000e+00
        5  1    4    4  502    0 -2.5008746322e+01 -8.5207527487e+00 -2.0911892585e+00 2.6916606259e+01 4.7000000000e+00 0.0000e+00 1.0000e+00
       -5  1    4    4    0  501 +5.5866772954e+00 +8.3395896127e+00 +9.5927930428e+00 1.4658492299e+01 4.7000000000e+00 0.0000e+00 -1.0000e+00
</event>
<event>
10      1 +4.6527485e-10 2.40000000e+02 7.81860800e-03 1.03012300e-01
      -11 -1    0    0    0    0 +0.0000000000e+00 +0.0000000000e+00 +1.2000000000e+02 1.2000000000e+02 0.0000000000e+00 0.0000e+00 -1.0000e+00
       11 -1    0    0    0    0 -0.0000000000e+00 -0.0000000000e+00 -1.2000000000e+02 1.2000000000e+02 0.0000000000e+00 0.0000e+00 1.0000e+00
       23  2    1    2    0    0 -1.2839220487e+01 -1.7499620769e+01 +4.4221838727e+01 1.0564285444e+02 9.3454584504e+01 0.0000e+00 0.0000e+00
       25  2    1    2    0    0 +1.2839220487e+01 +1.7499620769e+01 -4.4221838727e+01 1.3435714556e+02 1.2500075693e+02 0.0000e+00 0.0000e+00
      -11  1    3    3    0    0 -2.2445210521e+01 +2.4087418512e+01 -1.2010750867e+01 3.5046388434e+01 0.0000000000e+00 0.0000e+00 1.0000e+00
       11  1    3    3    0    0 +9.6059900342e+00 -4.1587039281e+01 +5.6232589593e+01 7.0596466010e+01 0.0000000000e+00 0.0000e+00 -1.0000e+00
        5  1    4    4  501    0 -5.8009872882e+00 -1.3096367994e+01 -1.1171961730e+01 1.8763502792e+01 4.7000000000e+00 0.0000e+00 -1.0000e+00
       -5  1    4    4    0  502 +1.8944584781e+01 +5.8409446467e+01 -2.2406095355e+01 6.5533837352e+01 4.7000000000e+00 0.0000e+00 1.0000e+00
        5  1    4    4  502    0 +6.6228969774e+00 +6.6528881190e+00 -1.0128511601e+01 1.4587680828e+01 4.7000000000e+00 0.0000e+00 1.0000e+00
       -5  1    4    4    0  501 -6.9272739831e+00 -3.4466345823e+01 -5.1527004036e-01 3.5472124583e+01 4.7000000000e+00 0.0000e+00 -1.0000e+00
</event>
<event>
10      1 +4.6527485e-10 2.40000000e+02 7.81860800e-03 1.03012300e-01
      -11 -1    0    0    0    0 +0.0000000000e+00 +0.0000000000e+00 +1.2000000000e+02 1.2000000000e+02 0.0000000000e+00 0.0000e+00 1.0000e+00
       11 -1    0    0    0    0 -0.0000000000e+00 -0.0000000000e+00 -1.2000000000e+02 1.2000000000e+02 0.0000000000e+00 0.0000e+00 -1.0000e+00
       23  2    1    2    0    0 +3.9594690763e+01 -2.3638221262e+01 +2.3125891068e+00 1.0674075355e+02 9.6237910195e+01 0.0000e+00 0.0000e+00
       25  2    1    2    0    0 -3.9594690763e+01 +2.3638221262e+01 -2.3125891068e+00 1.3325924645e+02 1.2500469453e+02 0.0000e+00 0.0000e+00
      -13  1    3    3    0    0 +5.5373093113e+00 -5.6698059218e+01 +1.2195282395e+01 5.8258532647e+01 0.0000000000e+00 0.0000e+00 -1.0000e+00
       13  1    3    3    0    0 +3.4057381452e+01 +3.3059837955e+01 -9.8826932879e+00 4.8482220902e+01 0.0000000000e+00 0.0000e+00 1.0000e+00
        5  1    4    4  501    0 -4.1729770666e+01 +2.4520019722e+01 -4.5877299856e+01 6.6853734145e+01 4.7000000000e+00 0.0000e+00 1.0000e+00
       -5  1    4    4    0  502 -5.9427144778e+00 -2.2874267683e+00 +1.1771109217e+01 1.4184399486e+01 4.7000000000e+00 0.0000e+00 -1.0000e+00
        5  1    4    4  502    0 +1.1207100981e+01 +2.4743824448e+00 +4.0182347568e+01 4.2052737568e+01 4.7000000000e+00 0.0000e+00 -1.0000e+00
       -5  1    4    4    0  501 -3.1293066003e+00 -1.0687541369e+00 -8.3887460359e+00 1.0168375252e+01 4.7000000000e+00 0.0000e+00 -1.0000e+00
</event>
<event>
10      1 +4.6527485e-10 2.40000000e+02 7.81860800e-03 1.03012300e-01
      -11 -1    0    0    0    0 +0.0000000000e+00 +0.0000000000e+00 +1.2000000000e+02 1.2000000000e+02 0.0000000000e+00 0.0000e+00 1.0000e+00
       11 -1    0    0    0    0 -0.0000000000e+00 -0.0000000000e+00 -1.2000000000e+02 1.2000000000e+02 0.0000000000e+00 0.0000e+00 -1.0000e+00
       23  2    1    2    0    0 -3.7207251452e+01 -2.8663798726e+01 +2.0869408912e+01 1.0487187343e+02 9.1414357132e+01 0.0000e+00 0.0000e+00
       25  2    1    2    0    0 +3.7207251452e+01 +2.8663798726e+01 -2.0869408912e+01 1.3512812657e+02 1.2497233872e+02 0.0000e+00 0.0000e+00
      -13  1    3    3    0    0 +1.5738164906e+01 -1.0587357570e+01 +4.1191658386e+01 4.5349031914e+01 0.0000000000e+00 0.0000e+00 1.0000e+00
       13  1    3    3    0    0 -5.2945416358e+01 -1.8076441156e+01 -2.0322249474e+01 5.9522841513e+01 0.0000000000e+00 0.0000e+00 -1.0000e+00
        5  1    4    4  501    0 -8.6954890740e+00 -1.5544730078e+01 +8.6900080723e+00 2.0368024051e+01 4.7000000000e+00 0.0000e+00 -1.0000e+00
       -5  1    4    4    0  501 +2.0524614363e+01 -1.4302882617e+01 +1.9329986847e+01 3.1962018669e+01 4.7000000000e+00 0.0000e+00 -1.0000e+00
        5  1    4    4  502    0 +3.8544714148e-01 +2.7605207885e+00 -5.1788334370e+00 7.5285696046e+00 4.7000000000e+00 0.0000e+00 -1.0000e+00
       -5  1    4    4    0  502 +2.4992679021e+01 +5.5750890633e+01 -4.3710570394e+01 7.5269514248e+01 4.7000000000e+00 0.0000e+00 -1.0000e+00
</event>
<event>
10      1 +4.6527485e-10 2.40000000e+02 7.81860800e-03 1.03012300e-01
      -11 -1    0    0    0    0 +0.0000000000e+00 +0.0000000000e+00 +1.2000000000e+02 1.2000000000e+02 0.0000000000e+00 0.0000e+00 1.0000e+00
       11 -1    0    0    0    0 -0.0000000000e+00 -0.0000000000e+00 -1.2000000000e+02 1.2000000000e+02 0.0000000000e+00 0.0000e+00 -1.0000e+00
       23  2    1    2    0    0 -9.2134989832e+00 -1.7433066766e+01 +4.7265497298e+01 1.0491468580e+02 9.1565624993e+01 0.0000e+00 0.0000e+00
       25  2    1    2    0    0 +9.2134989832e+00 +1.7433066766e+01 -4.7265497298e+01 1.3508531420e+02 1.2500085799e+02 0.0000e+00 0.0000e+00
      -13  1    3    3    0    0 +8.7894302788e+00 +1.3101040010e+01 -2.2020155787e+01 2.7088347953e+01 0.0000000000e+00 0.0000e+00 -1.0000e+00
       13  1    3    3    0    0 -1.8002929262e+01 -3.0534106776e+01 +6.9285653084e+01 7.7826337842e+01 0.0000000000e+00 0.0000e+00 1.0000e+00
        5  1    4    4  501    0 +4.2833178617e+01 +2.2827593555e+01 -2.7676702695e+01 5.6070224630e+01 4.7000000000e+00 0.0000e+00 -1.0000e+00
       -5  1    4    4    0  502 -2.0855186694e+01 -6.7949966667e+00 +3.0446349061e+00 2.2637813354e+01 4.7000000000e+00 0.0000e+00 1.0000e+00
        5  1    4    4  502    0 -3.0286105488e+01 -2.5957335533e+00 -2.1952685760e+01 3.7788840024e+01 4.7000000000e+00 0.0000e+00 1.0000e+00
       -5  1    4    4    0  501 +1.7521612549e+01 +3.9962034313e+00 -6.8074374904e-01 1.8588436196e+01 4.7000000000e+00 0.0000e+00 -1.0000e+00
</event>
<event>
10      1 +4.6527485e-10 2.40000000e+02 7.81860800e-03 1.03012300e-01
      -11 -1    0    0    0    0 +0.0000000000e+00 +0.0000000000e+00 +1.2000000000e+02 1.2000000000e+02 0.0000000000e+00 0.0000e+00 1.0000e+00
       11 -1    0    0    0    0 -0.0000000000e+00 -0.0000000000e+00 -1.2000000000e+02 1.2000000000e+02 0.0000000000e+00 0.0000e+00 -1.0000e+00
       23  2    1    2    0    0 +1.5403214331e+01 +4.7976123532e+01 -1.7663057104e+01 1.0407377467e+02 8.9333082043e+01 0.0000e+00 0.0000e+00
       25  2    1    2    0    0 -1.5403214331e+01 -4.7976123532e+01 +1.7663057104e+01 1.3592622533e+02 1.2499995082e+02 0.0000e+00 0.0000e+00
      -11  1    3    3    0    0 +6.0997858908e+00 +2.0972399510e+00 -4.7908237383e+01 4.8340511090e+01 0.0000000000e+00 0.0000e+00 -1.0000e+00
       11  1    3    3    0    0 +9.3034284398e+00 +4.5878883581e+01 +3.0245180278e+01 5.5733263582e+01 0.0000000000e+00 0.0000e+00 1.0000e+00
        5  1    4    4  501    0 -2.1540949609e+01 +1.5463198466e+00 +8.6824667032e+00 2.3746133226e+01 4.7000000000e+00 0.0000e+00 1.0000e+00
       -5  1    4    4    0  502 +2.1298637746e+01 -3.2456970006e+01 +2.6424390387e+01 4.7195606565e+01 4.7000000000e+00 0.0000e+00 -1.0000e+00
        5  1    4    4  502    0 +9.2162321566e+00 -2.7728132507e+01 +4.8065117894e+00 2.9983008906e+01 4.7000000000e+00 0.0000e+00 -1.0000e+00
       -5  1    4    4    0  501 -2.4377134624e+01 +1.0662659134e+01 -2.2250311775e+01 3.5001476631e+01 4.7000000000e+00 0.0000e+00 1.0000e+00
</event>
<event>
10      1 +4.6527485e-10 2.40000000e+02 7.81860800e-03 1.03012300e-01
      -11 -1    0    0    0    0 +0.0000000000e+00 +0.0000000000e+00 +1.2000000000e+02 1.2000000000e+02 0.0000000000e+00 0.0000e+00 -1.0000e+00
       11 -1    0    0    0    0 -0.0000000000e+00 -0.0000000000e+00 -1.2000000000e+02 1.2000000000e+02 0.0000000000e+00 0.0000e+00 1.0000e+00
       23  2    1    2    0    0 -1.9253547955e+01 -4.1735506875e+01 +2.5949546447e+01 1.0431269137e+02 8.9973368158e+01 0.0000e+00 0.0000e+00
       25  2    1    2    0    0 +1.9253547955e+01 +4.1735506875e+01 -2.5949546447e+01 1.3568730863e+02 1.2500046047e+02 0.0000e+00 0.0000e+00
      -13  1    3    3    0    0 -7.9736464971e+00 -4.6615761221e+01 +5.5138346339e+01 7.2641898858e+01 0.0000000000e+00 0.0000e+00 -1.0000e+00
       13  1    3    3    0    0 -1.1279901458e+01 +4.8802543464e+00 -2.9188799892e+01 3.1670792515e+01 0.0000000000e+00 0.0000e+00 1.0000e+00
        5  1    4    4  501    0 +1.6367532889e+01 +3.6128077013e+00 -7.6553165780e-01 1.7424825712e+01 4.7000000000e+00 0.0000e+00 1.0000e+00
       -5  1    4    4    0  502 -1.7526639702e+01 +1.2366848224e+01 +2.6521420063e+01 3.4432510167e+01 4.7000000000e+00 0.0000e+00 1.0000e+00
        5  1    4    4  502    0 -1.4219210417e+01 +1.8313980246e+00 +2.2312857419e+00 1.5251511390e+01 4.7000000000e+00 0.0000e+00 1.0000e+00
       -5  1    4    4    0  501 +3.4631865185e+01 +2.3924452925e+01 -5.3936720594e+01 6.8578461359e+01 4.7000000000e+00 0.0000e+00 1.0000e+00
</event>
<event>
10      1 +4.6527485e-10 2.40000000e+02 7.81860800e-03 1.03012300e-01
      -11 -1    0    0    0    0 +0.0000000000e+00 +0.0000000000e+00 +1.2000000000e+02 1.2000000000e+02 0.0000000000e+00 0.0000e+00 -1.0000e+00
       11 -1    0    0    0    0 -0.0000000000e+00 -0.0000000000e+00 -1.2000000000e+02 1.2000000000e+02 0.0000000000e+00 0.0000e+00 1.0000e+00
       23  2    1    2    0    0 +4.6030693292e+01 -9.3635277466e+00 -2.1292458116e+01 1.0477616254e+02 9.1204029998e+01 0.0000e+00 0.0000e+00
       25  2    1    2    0    0 -4.6030693292e+01 +9.3635277466e+00 +2.1292458116e+01 1.3522383746e+02 1.2500246824e+02 0.0000e+00 0.0000e+00
      -13  1    3    3    0    0 +6.1416195604e+01 -3.2411857329e+01 -3.0116693500e+01 7.5693413223e+01 0.0000000000e+00 0.0000e+00 1.0000e+00
       13  1    3    3    0    0 -1.5385502312e+01 +2.3048329582e+01 +8.8242353837e+00 2.9082749320e+01 0.0000000000e+00 0.0000e+00 -1.0000e+00
        5  1    4    4  501    0 -1.2952016595e+01 +5.6325701510e+00 -7.5174655112e+00 1.6675816864e+01 4.7000000000e+00 0.0000e+00 -1.0000e+00
       -5  1    4    4    0  501 -6.6671541214e+01 +2.2234103558e+01 +1.4542513363e+01 7.1923740613e+01 4.7000000000e+00 0.0000e+00 -1.0000e+00
        5  1    4    4  502    0 +5.0886897018e+00 -1.2845077023e+01 +1.9907574471e+00 1.4729014964e+01 4.7000000000e+00 0.0000e+00 -1.0000e+00
       -5  1    4    4    0  502 +2.8504174815e+01 -5.6580689399e+00 +1.2276652817e+01 3.1895265015e+01 4.7000000000e+00 0.0000e+00 -1.0000e+00
</event>
<event>
10      1 +4.6527485e-10 2.40000000e+02 7.81860800e-03 1.03012300e-01
      -11 -1    0    0    0    0 +0.0000000000e+00 +0.0000000000e+00 +1.2000000000e+02 1.2000000000e+02 0.0000000000e+00 0.0000e+00 1.0000e+00
       11 -1    0    0    0    0 -0.0000000000e+00 -0.0000000000e+00 -1.2000000000e+02 1.2000000000e+02 0.0000000000e+00 0.0000e+00 -1.0000e+00
       23  2    1    2    0    0 +3.8720628185e+01 -3.2539030842e+01 +1.9045608121e+00 1.0514117209e+02 9.2157273945e+01 0.0000e+00 0.0000e+00
       25  2    1    2    0    0 -3.8720628185e+01 +3.2539030842e+01 -1.9045608121e+00 1.3485882791e+02 1.2500080215e+02 0.0000e+00 0.0000e+00
      -13  1    3    3    0    0 -2.2701220568e+01 -5.5567532538e+00 -2.3745455743e+01 3.3317706861e+01 0.0000000000e+00 0.0000e+00 1.0000e+00
       13  1    3    3    0    0 +6.1421848753e+01 -2.6982277588e+01 +2.5650016555e+01 7.1823465228e+01 0.0000000000e+00 0.0000e+00 -1.0000e+00
        5  1    4    4  501    0 -6.7199962049e+00 +4.3460667342e+00 +1.1913652968e+01 1.5102045295e+01 4.7000000000e+00 0.0000e+00 1.0000e+00
       -5  1    4    4    0  501 +1.8984620854e-01 +7.7443545461e+00 +4.4138497569e+01 4.5058939586e+01 4.7000000000e+00 0.0000e+00 1.0000e+00
        5  1    4    4  502    0 -1.3475678584e+01 -2.0283769601e+00 -3.2822234780e+01 3.5848254105e+01 4.7000000000e+00 0.0000e+00 -1.0000e+00
       -5  1    4    4    0  502 -1.8714799605e+01 +2.2476986521e+01 -2.5134476569e+01 3.8849588926e+01 4.7000000000e+00 0.0000e+00 -1.0000e+00
</event>
<event>
10      1 +4.6527485e-10 2.40000000e+02 7.81860800e-03 1.03012300e-01
      -11 -1    0    0    0    0 +0.0000000000e+00 +0.0000000000e+00 +1.2000000000e+02 1.2000000000e+02 0.0000000000e+00 0.0000e+00 -1.0000e+00
       11 -1    0    0    0    0 -0.0000000000e+00 -0.0000000000e+00 -1.2000000000e+02 1.2000000000e+02 0.0000000000e+00 0.0000e+00 1.0000e+00
       23  2    1    2    0    0 +2.8615364789e+01 +4.4569653651e+01 +3.1193001580e+00 1.0420606948e+02 8.9687690093e+01 0.0000e+00 0.0000e+00
       25  2    1    2    0    0 -2.8615364789e+01 -4.4569653651e+01 -3.1193001580e+00 1.3579393052e+02 1.2499987362e+02 0.0000e+00 0.0000e+00
      -13  1    3    3    0    0 +3.3413401498e+01 +5.4272518102e+01 -2.9213241105e+01 7.0109735962e+01 0.0000000000e+00 0.0000e+00 1.0000e+00
       13  1    3    3    0    0 -4.7980367088e+00 -9.7028644502e+00 +3.2332541263e+01 3.4096333517e+01 0.0000000000e+00 0.0000e+00 -1.0000e+00
        5  1    4    4  501    0 +1.2784657353e+00 -5.5948591433e+00 +3.3032922564e+00 8.1202625081e+00 4.7000000000e+00 0.0000e+00 1.0000e+00
       -5  1    4    4    0  502 +5.2224278115e-01 +4.6339760242e+00 -2.1374708986e+01 2.2376654253e+01 4.7000000000e+00 0.0000e+00 -1.0000e+00
        5  1    4    4  502    0 -2.7987887693e+00 +2.4067500589e+01 -1.1750916728e+01 2.7335907652e+01 4.7000000000e+00 0.0000e+00 -1.0000e+00
       -5  1    4    4    0  501 -2.7617284537e+01 -6.7676271122e+01 +2.6703033300e+01 7.7961106108e+01 4.7000000000e+00 0.0000e+00 -1.0000e+00
</event>
<event>
10      1 +4.6527485e-10 2.40000000e+02 7.81860800e-03 1.03012300e-01
      -11 -1    0    0    0    0 +0.0000000000e+00 +0.0000000000e+00 +1.2000000000e+02 1.2000000000e+02 0.0000000000e+00 0.0000e+00 -1.0000e+00
       11 -1    0    0    0    0 -0.0000000000e+00 -0.0000000000e+00 -1.2000000000e+02 1.2000000000e+02 0.0000000000e+00 0.0000e+00 1.0000e+00
       23  2    1    2    0    0 -1.3407607260e+01 -2.0403825118e+01 -4.5111303515e+01 1.0488201839e+02 9.1482938654e+01 0.0000e+00 0.0000e+00
       25  2    1    2    0    0 +1.3407607260e+01 +2.0403825118e+01 +4.5111303515e+01 1.3511798161e+02 1.2500303691e+02 0.0000e+00 0.0000e+00
      -11  1    3    3    0    0 +1.6152181358e+01 -4.8943305225e+01 -3.5794674132e+01 6.2750289124e+01 0.0000000000e+00 0.0000e+00 1.0000e+00
       11  1    3    3    0    0 -2.9559788617e+01 +2.8539480106e+01 -9.3166293838e+00 4.2131729266e+01 0.0000000000e+00 0.0000e+00 -1.0000e+00
        5  1    4    4  501    0 -1.2384423946e+01 -2.6859807973e+01 -1.9722984867e+00 3.0013383717e+01 4.7000000000e+00 0.0000e+00 -1.0000e+00
       -5  1    4    4    0  502 +7.5767732392e+00 +2.0180518522e+01 +3.9455169506e+01 4.5204659288e+01 4.7000000000e+00 0.0000e+00 1.0000e+00
        5  1    4    4  502    0 +1.4221464321e+01 +3.1520177320e+01 +2.3657801116e+01 4.2161038642e+01 4.7000000000e+00 0.0000e+00 1.0000e+00
       -5  1    4    4    0  501 +3.9937936453e+00 -4.4370627507e+00 -1.6029368621e+01 1.7738899963e+01 4.7000000000e+00 0.0000e+00 -1.0000e+00
</event>
<event>
10      1 +4.6527485e-10 2.40000000e+02 7.81860800e-03 1.03012300e-01
      -11 -1    0    0    0    0 +0.0000000000e+00 +0.0000000000e+00 +1.2000000000e+02 1.2000000000e+02 0.0000000000e+00 0.0000e+00 1.0000e+00
       11 -1    0    0    0    0 -0.0000000000e+00 -0.0000000000e+00 -1.2000000000e+02 1.2000000000e+02 0.0000000000e+00 0.0000e+00 -1.0000e+00
       23  2    1    2    0    0 +4.5752918081e+01 +2.0662036662e+01 -1.4218510774e+01 1.0454733657e+02 9.0596524568e+01 0.0000e+00 0.0000e+00
       25  2    1    2    0    0 -4.5752918081e+01 -2.0662036662e+01 +1.4218510774e+01 1.3545266343e+02 1.2500003484e+02 0.0000e+00 0.0000e+00
      -13  1    3    3    0    0 +6.4512198345e+00 -4.9334813894e+00 -4.6761448782e+01 4.7461464033e+01 0.0000000000e+00 0.0000e+00 -1.0000e+00
       13  1    3    3    0    0 +3.9301698247e+01 +2.5595518052e+01 +3.2542938008e+01 5.7085872539e+01 0.0000000000e+00 0.0000e+00 1.0000e+00
        5  1    4    4  501    0 -6.7956699979e+00 -1.0622507533e+01 -1.4056149544e+01 1.9459808247e+01 4.7000000000e+00 0.0000e+00 -1.0000e+00
       -5  1    4    4    0  502 -1.4746823317e+01 +1.8471527986e+01 +4.4996605679e+01 5.1043615337e+01 4.7000000000e+00 0.0000e+00 -1.0000e+00
        5  1    4    4  502    0 -9.0287754164e+00 +1.3995375860e+01 -6.0347973821e+00 1.8327523303e+01 4.7000000000e+00 0.0000e+00 -1.0000e+00
       -5  1    4    4    0  501 -1.5181649350e+01 -4.2506432975e+01 -1.0687147979e+01 4.6621716540e+01 4.7000000000e+00 0.0000e+00 -1.0000e+00
</event>
<event>
10      1 +4.6527485e-10 2.40000000e+02 7.81860800e-03 1.03012300e-01
      -11 -1    0    0    0    0 +0.0000000000e+00 +0.0000000000e+00 +1.2000000000e+02 1.2000000000e+02 0.0000000000e+00 0.0000e+00 -1.0000e+00
       11 -1    0    0    0    0 -0.0000000000e+00 -0.0000000000e+00 -1.2000000000e+02 1.2000000000e+02 0.0000000000e+00 0.0000e+00 1.0000e+00
       23  2    1    2    0    0 -4.7238566384e+01 +1.5009863456e+01 -1.0419015462e+01 1.0512938365e+02 9.2124118825e+01 0.0000e+00 0.0000e+00
       25  2    1    2    0    0 +4.7238566384e+01 -1.5009863456e+01 +1.0419015462e+01 1.3487061635e+02 1.2499899646e+02 0.0000e+00 0.0000e+00
      -13  1    3    3    0    0 +4.4728212693e+00 +4.0653285723e+01 +1.2887620738e+01 4.2881074363e+01 0.0000000000e+00 0.0000e+00 -1.0000e+00
       13  1    3    3    0    0 -5.1711387654e+01 -2.5643422267e+01 -2.3306636200e+01 6.2248309291e+01 0.0000000000e+00 0.0000e+00 1.0000e+00
        5  1    4    4  501    0 -1.4042121085e+01 -1.2095100181e+01 +8.1634323039e+00 2.0789522360e+01 4.7000000000e+00 0.0000e+00 1.0000e+00
       -5  1    4    4    0  502 +5.5572663993e+01 -1.9396142964e+01 +5.8465576351e+00 5.9336359690e+01 4.7000000000e+00 0.0000e+00 1.0000e+00
        5  1    4    4  502    0 +1.7517073393e+01 -1.1598383536e+01 -9.2081128357e+00 2.3414732604e+01 4.7000000000e+00 0.0000e+00 1.0000e+00
       -5  1    4    4    0  501 -1.1809049916e+01 +2.8079763225e+01 +5.6171383586e+00 3.1330001692e+01 4.7000000000e+00 0.0000e+00 1.0000e+00
</event>
<event>
10      1 +4.6527485e-10 2.40000000e+02 7.81860800e-03 1.03012300e-01
      -11 -1    0    0    0    0 +0.0000000000e+00 +0.0000000000e+00 +1.2000000000e+02 1.2000000000e+02 0.0000000000e+00 0.0000e+00 1.0000e+00
       11 -1    0    0    0    0 -0.0000000000e+00 -0.0000000000e+00 -1.2000000000e+02 1.2000000000e+02 0.0000000000e+00 0.0000e+00 -1.0000e+00
       23  2    1    2    0    0 -7.5863478825e+00 -5.0653399221e+01 -2.7228060038e+00 1.0488491876e+02 9.1488321572e+01 0.0000e+00 0.0000e+00
       25  2    1    2    0    0 +7.5863478825e+00 +5.0653399221e+01 +2.7228060038e+00 1.3511508124e+02 1.2500140791e+02 0.0000e+00 0.0000e+00
      -11  1    3    3    0    0 +2.5295616772e+01 -6.3428137994e+01 +5.9906436402e+00 6.8548411568e+01 0.0000000000e+00 0.0000e+00 1.0000e+00
       11  1    3    3    0    0 -3.2881964655e+01 +1.2774738773e+01 -8.7134496440e+00 3.6336507193e+01 0.0000000000e+00 0.0000e+00 -1.0000e+00
        5  1    4    4  501    0 +7.0619651071e-01 +2.2526087900e+01 +1.7068047270e+01 2.8658883216e+01 4.7000000000e+00 0.0000e+00 -1.0000e+00
       -5  1    4    4    0  501 -6.8971358485e-01 +1.6282668744e+01 +9.6335869816e+00 1.9506332418e+01 4.7000000000e+00 0.0000e+00 1.0000e+00
        5  1    4    4  502    0 +6.2365507936e+00 -3.2038728163e+01 -2.7102533032e+01 4.2685032094e+01 4.7000000000e+00 0.0000e+00 1.0000e+00
       -5  1    4    4    0  502 +1.3333141630e+00 +4.3883370740e+01 +3.1237047839e+00 4.4264833511e+01 4.7000000000e+00 0.0000e+00 -1.0000e+00
</event>
<event>
10      1 +4.6527485e-10 2.40000000e+02 7.81860800e-03 1.03012300e-01
      -11 -1    0    0    0    0 +0.0000000000e+00 +0.0000000000e+00 +1.2000000000e+02 1.2000000000e+02 0.0000000000e+00 0.0000e+00 -1.0000e+00
       11 -1    0    0    0    0 -0.0000000000e+00 -0.0000000000e+00 -1.2000000000e+02 1.2000000000e+02 0.0000000000e+00 0.0000e+00 1.0000e+00
       23  2    1    2    0    0 +3.6450415644e+01 +1.5573724513e+00 -3.1647303242e+01 1.0599603306e+02 9.4353320091e+01 0.0000e+00 0.0000e+00
       25  2    1    2    0    0 -3.6450415644e+01 -1.5573724513e+00 +3.1647303242e+01 1.3400396694e+02 1.2499781256e+02 0.0000e+00 0.0000e+00
      -11  1    3    3    0    0 +3.6686878915e+01 +2.7979846765e+01 -5.4255051381e+01 7.1220850247e+01 0.0000000000e+00 0.0000e+00 1.0000e+00
       11  1    3    3    0    0 -2.3646327145e-01 -2.6422474314e+01 +2.2607748139e+01 3.4775182813e+01 0.0000000000e+00 0.0000e+00 -1.0000e+00
        5  1    4    4  501    0 -1.4319164207e+01 +1.0830341925e+01 +3.7639524871e+01 4.1966160204e+01 4.7000000000e+00 0.0000e+00 -1.0000e+00
       -5  1    4    4    0  502 -5.1024806743e-01 +4.8519201501e+00 -3.2288405881e+01 3.2991402464e+01 4.7000000000e+00 0.0000e+00 -1.0000e+00
        5  1    4    4  502    0 +3.3794840850e+00 -1.1407530900e+01 -8.6411789203e+00 1.5437378244e+01 4.7000000000e+00 0.0000e+00 -1.0000e+00
       -5  1    4    4    0  501 -2.5000487454e+01 -5.8321036257e+00 +3.4937363173e+01 4.3609026028e+01 4.7000000000e+00 0.0000e+00 -1.0000e+00
</event>
<event>
10      1 +4.6527485e-10 2.40000000e+02 7.81860800e-03 1.03012300e-01
      -11 -1    0    0    0    0 +0.0000000000e+00 +0.0000000000e+00 +1.2000000000e+02 1.2000000000e+02 0.0000000000e+00 0.0000e+00 -1.0000e+00
       11 -1    0    0    0    0 -0.0000000000e+00 -0.0000000000e+00 -1.2000000000e+02 1.2000000000e+02 0.0000000000e+00 0.0000e+00 1.0000e+00
       23  2    1    2    0    0 +2.9234861359e+01 -1.2363056641e+01 -4.2294179902e+01 1.0427467789e+02 8.9871511095e+01 0.0000e+00 0.0000e+00
       25  2    1    2    0    0 -2.9234861359e+01 +1.2363056641e+01 +4.2294179902e+01 1.3572532211e+02 1.2500017249e+02 0.0000e+00 0.0000e+00
      -11  1    3    3    0    0 +2.2486563449e+01 +3.2095276322e+01 +4.4163659185e+00 3.9436741572e+01 0.0000000000e+00 0.0000e+00 -1.0000e+00
       11  1    3    3    0    0 +6.7482979104e+00 -4.4458332963e+01 -4.6710545820e+01 6.4837936313e+01 0.0000000000e+00 0.0000e+00 1.0000e+00
        5  1    4    4  501    0 +1.2167973587e+01 +3.7011376558e+01 +3.5128013117e+01 5.2668480911e+01 4.7000000000e+00 0.0000e+00 -1.0000e+00
       -5  1    4    4    0  502 -1.1651874905e+01 +4.2933101880e+00 -3.7342985418e+00 1.3792522857e+01 4.7000000000e+00 0.0000e+00 1.0000e+00
        5  1    4    4  502    0 -3.9671856118e+01 -3.6731213654e+01 +1.2554641829e+01 5.5702309250e+01 4.7000000000e+00 0.0000e+00 1.0000e+00
       -5  1    4    4    0  501 +9.9208960767e+00 +7.7895835487e+00 -1.6541765025e+00 1.3562009096e+01 4.7000000000e+00 0.0000e+00 -1.0000e+00
</event>
<event>
10      1 +4.6527485e-10 2.40000000e+02 7.81860800e-03 1.03012300e-01
      -11 -1    0    0    0    0 +0.0000000000e+00 +0.0000000000e+00 +1.2000000000e+02 1.2000000000e+02 0.0000000000e+00 0.0000e+00 -1.0000e+00
       11 -1    0    0    0    0 -0.0000000000e+00 -0.0000000000e+00 -1.2000000000e+02 1.2000000000e+02 0.0000000000e+00 0.0000e+00 1.0000e+00
       23  2    1    2    0    0 -4.2378448053e+01 -1.0869346861e+01 +3.3550764681e+01 1.0338777392e+02 8.7460290562e+01 0.0000e+00 0.0000e+00
       25  2    1    2    0    0 +4.2378448053e+01 +1.0869346861e+01 -3.3550764681e+01 1.3661222608e+02 1.2499268356e+02 0.0000e+00 0.0000e+00
      -13  1    3    3    0    0 -1.2152324746e+01 +3.9487700943e+00 +5.9517366348e+01 6.0873546628e+01 0.0000000000e+00 0.0000e+00 -1.0000e+00
       13  1    3    3    0    0 -3.0226123306e+01 -1.4818116955e+01 -2.5966601668e+01 4.2514227294e+01 0.0000000000e+00 0.0000e+00 1.0000e+00
        5  1    4    4  501    0 -1.8073295402e+01 +1.4538492677e+01 -8.6170051187e+00 2.5186396194e+01 4.7000000000e+00 0.0000e+00 1.0000e+00
       -5  1    4    4    0  502 +2.0529151124e+01 -1.8269098588e+01 +3.0202560639e+00 2.8043144542e+01 4.7000000000e+00 0.0000e+00 1.0000e+00
        5  1    4    4  502    0 +2.1156619030e+01 -2.4726290855e+01 -2.0983102041e+01 3.9004776111e+01 4.7000000000e+00 0.0000e+00 1.0000e+00
       -5  1    4    4    0  501 +1.8765973300e+01 +3.9326243626e+01 -6.9709135849e+00 4.4377909232e+01 4.7000000000e+00 0.0000e+00 1.0000e+00
</event>
<event>
10      1 +4.6527485e-10 2.40000000e+02 7.81860800e-03 1.03012300e-01
      -11 -1    0    0    0    0 +0.0000000000e+00 +0.0000000000e+00 +1.2000000000e+02 1.2000000000e+02 0.0000000000e+00 0.0000e+00 -1.0000e+00
       11 -1    0    0    0    0 -0.0000000000e+00 -0.0000000000e+00 -1.2000000000e+02 1.2000000000e+02 0.0000000000e+00 0.0000e+00 1.0000e+00
       23  2    1    2    0    0 +2.0088177718e+01 +3.1890911656e+01 -2.7079087985e+01 1.0666243876e+02 9.6036626899e+01 0.0000e+00 0.0000e+00
       25  2    1    2    0    0 -2.0088177718e+01 -3.1890911656e+01 +2.7079087985e+01 1.3333756124e+02 1.2500025240e+02 0.0000e+00 0.0000e+00
      -11  1    3    3    0    0 +4.9497539123e+01 +9.9205535801e+00 -4.3319517105e+01 6.6520705985e+01 0.0000000000e+00 0.0000e+00 1.0000e+00
       11  1    3    3    0    0 -2.9409361405e+01 +2.1970358076e+01 +1.6240429121e+01 4.0141732776e+01 0.0000000000e+00 0.0000e+00 -1.0000e+00
        5  1    4    4  501    0 +1.0043612581e+01 -5.6068930723e+00 -1.3257095640e+01 1.8170084986e+01 4.7000000000e+00 0.0000e+00 1.0000e+00
       -5  1    4    4    0  502 -1.8029093581e+01 -2.2571250409e+01 +1.6212741037e+01 3.3458220698e+01 4.7000000000e+00 0.0000e+00 -1.0000e+00
        5  1    4    4  502    0 -3.9991765853e+01 -1.5055289980e+01 +2.7527680737e+01 5.1047686521e+01 4.7000000000e+00 0.0000e+00 -1.0000e+00
       -5  1    4    4    0  501 +2.7889069136e+01 +1.1342521805e+01 -3.4042381486e+00 3.0661569033e+01 4.7000000000e+00 0.0000e+00 1.0000e+00
</event>
<event>
10      1 +4.6527485e-10 2.40000000e+02 7.81860800e-03 1.03012300e-01
      -11 -1    0    0    0    0 +0.0000000000e+00 +0.0000000000e+00 +1.2000000000e+02 1.2000000000e+02 0.0000000000e+00 0.0000e+00 1.0000e+00
       11 -1    0    0    0    0 -0.0000000000e+00 -0.0000000000e+00 -1.2000000000e+02 1.2000000000e+02 0.0000000000e+00 0.0000e+00 -1.0000e+00
       23  2    1    2    0    0 -3.5480041360e+01 +9.8633939764e+00 +3.0879764769e+01 1.0608212500e+02 9.4571335488e+01 0.0000e+00 0.0000e+00
       25  2    1    2    0    0 +3.5480041360e+01 -9.8633939764e+00 -3.0879764769e+01 1.3391787500e+02 1.2499726996e+02 0.0000e+00 0.0000e+00
      -13  1    3    3    0    0 +5.7082585152e+00 -2.8324021713e+01 -1.5905481325e+01 3.2982097530e+01 0.0000000000e+00 0.0000e+00 -1.0000e+00
       13  1    3    3    0    0 -4.1188299875e+01 +3.8187415689e+01 +4.6785246095e+01 7.3100027468e+01 0.0000000000e+00 0.0000e+00 1.0000e+00
        5  1    4    4  501    0 +4.6425148465e+01 -1.3698872509e+00 -2.6682214925e+01 5.3769894870e+01 4.7000000000e+00 0.0000e+00 1.0000e+00
       -5  1    4    4    0  502 -8.9630990896e+00 -6.7514980984e+00 -9.3870229150e+00 1.5366394212e+01 4.7000000000e+00 0.0000e+00 -1.0000e+00
        5  1    4    4  502    0 -3.1359748351e+01 -1.0610305311e+01 +9.7845639288e-01 3.3452350775e+01 4.7000000000e+00 0.0000e+00 -1.0000e+00
       -5  1    4    4    0  501 +2.9377740336e+01 +8.8682966839e+00 +4.2110166783e+00 3.1329235146e+01 4.7000000000e+00 0.0000e+00 1.0000e+00
</event>
<event>
10      1 +4.6527485e-10 2.40000000e+02 7.81860800e-03 1.03012300e-01
      -11 -1    0    0    0    0 +0.0000000000e+00 +0.0000000000e+00 +1.2000000000e+02 1.2000000000e+02 0.0000000000e+00 0.0000e+00 1.0000e+00
       11 -1    0    0    0    0 -0.0000000000e+00 -0.0000000000e+00 -1.2000000000e+02 1.2000000000e+02 0.0000000000e+00 0.0000e+00 -1.0000e+00
       23  2    1    2    0    0 +9.3233997027e-01 +4.9259744697e+01 +1.3363730297e+01 1.0497189525e+02 9.1723049441e+01 0.0000e+00 0.0000e+00
       25  2    1    2    0    0 -9.3233997027e-01 -4.9259744697e+01 -1.3363730297e+01 1.3502810475e+02 1.2500643216e+02 0.0000e+00 0.0000e+00
      -11  1    3    3    0    0 +6.2452543328e+00 +1.8411082380e+01 -3.9221134039e+01 4.3775204298e+01 0.0000000000e+00 0.0000e+00 -1.0000e+00
       11  1    3    3    0    0 -5.3129143625e+00 +3.0848662317e+01 +5.2584864336e+01 6.1196690948e+01 0.0000000000e+00 0.0000e+00 1.0000e+00
        5  1    4    4  501    0 -1.1811894326e+01 -3.4433775555e+01 +3.5525833078e+01 5.1082096300e+01 4.7000000000e+00 0.0000e+00 1.0000e+00
       -5  1    4    4    0  502 -2.4922012065e+00 -1.1791535356e+00 -2.2281142501e+01 2.2937758850e+01 4.7000000000e+00 0.0000e+00 1.0000e+00
        5  1    4    4  502    0 +2.0871042581e+01 -1.1611780761e+01 -3.8801556626e+01 4.5804854191e+01 4.7000000000e+00 0.0000e+00 1.0000e+00
       -5  1    4    4    0  501 -7.4992870190e+00 -2.0350348449e+00 +1.2193135752e+01 1.5203395413e+01 4.7000000000e+00 0.0000e+00 1.0000e+00
</event>
<event>
10      1 +4.6527485e-10 2.40000000e+02 7.81860800e-03 1.03012300e-01
      -11 -1    0    0    0    0 +0.0000000000e+00 +0.0000000000e+00 +1.2000000000e+02 1.2000000000e+02 0.0000000000e+00 0.0000e+00 1.0000e+00
       11 -1    0    0    0    0 -0.0000000000e+00 -0.0000000000e+00 -1.2000000000e+02 1.2000000000e+02 0.0000000000e+00 0.0000e+00 -1.0000e+00
       23  2    1    2    0    0 +2.2758211916e+01 +1.3544295181e+01 +4.4605748330e+01 1.0466332271e+02 9.0902993320e+01 0.0000e+00 0.0000e+00
       25  2    1    2    0    0 -2.2758211916e+01 -1.3544295181e+01 -4.4605748330e+01 1.3533667729e+02 1.2499983718e+02 0.0000e+00 0.0000e+00
      -13  1    3    3    0    0 -2.7495285124e+01 -2.9199807679e+00 +4.3773617739e+01 5.1774961146e+01 0.0000000000e+00 0.0000e+00 1.0000e+00
       13  1    3    3    0    0 +5.0253497040e+01 +1.6464275949e+01 +8.3213059126e-01 5.2888361561e+01 0.0000000000e+00 0.0000e+00 -1.0000e+00
        5  1    4    4  501    0 -4.3695496444e+00 +2.7668802311e+00 +9.1491263571e-01 7.0480958733e+00 4.7000000000e+00 0.0000e+00 -1.0000e+00
       -5  1    4    4    0  501 +1.2982320733e+01 +1.2706368954e+01 -7.0099286591e+01 7.2567158166e+01 4.7000000000e+00 0.0000e+00 -1.0000e+00
        5  1    4    4  502    0 +1.3872579776e+00 -1.0588585401e+01 +2.6926846477e+00 1.1974271423e+01 4.7000000000e+00 0.0000e+00 -1.0000e+00
       -5  1    4    4    0  502 -3.2758240982e+01 -1.8428958965e+01 +2.1885940978e+01 4.3747151831e+01 4.7000000000e+00 0.0000e+00 -1.0000e+00
</event>
<event>
10      1 +4.6527485e-10 2.40000000e+02 7.81860800e-03 1.03012300e-01
      -11 -1    0    0    0    0 +0.0000000000e+00 +0.0000000000e+00 +1.2000000000e+02 1.2000000000e+02 0.0000000000e+00 0.0000e+00 1.0000e+00
       11 -1    0    0    0    0 -0.0000000000e+00 -0.0000000000e+00 -1.2000000000e+02 1.2000000000e+02 0.0000000000e+00 0.0000e+00 -1.0000e+00
       23  2    1    2    0    0 -1.4266915651e+01 +4.6487291486e+01 -1.4720391216e+01 1.0506955644e+02 9.1969063386e+01 0.0000e+00 0.0000e+00
       25  2    1    2    0    0 +1.4266915651e+01 -4.6487291486e+01 +1.4720391216e+01 1.3493044356e+02 1.2499968612e+02 0.0000e+00 0.0000e+00
      -11  1    3    3    0    0 +1.5903473239e+00 +6.5451314278e+01 -3.3951095186e+01 7.3750122777e+01 0.0000000000e+00 0.0000e+00 -1.0000e+00
       11  1    3    3    0    0 -1.5857262975e+01 -1.8964022792e+01 +1.9230703970e+01 3.1319433659e+01 0.0000000000e+00 0.0000e+00 1.0000e+00
        5  1    4    4  501    0 +1.1433285839e+00 +2.3664283328e+00 +3.3870658111e+01 3.4296044439e+01 4.7000000000e+00 0.0000e+00 -1.0000e+00
       -5  1    4    4    0  502 +1.3898124504e+01 -1.9201958124e+01 -3.6968453905e+01 4.4165933078e+01 4.7000000000e+00 0.0000e+00 -1.0000e+00
        5  1    4    4  502    0 +1.1227409934e+00 -1.7152400613e+01 -1.3508526364e+01 2.2361477560e+01 4.7000000000e+00 0.0000e+00 -1.0000e+00
       -5  1    4    4    0  501 -1.8972784307e+00 -1.2499361082e+01 +3.1326713374e+01 3.4106988487e+01 4.7000000000e+00 0.0000e+00 -1.0000e+00
</event>
<event>
10      1 +4.6527485e-10 2.40000000e+02 7.81860800e-03 1.03012300e-01
      -11 -1    0    0    0    0 +0.0000000000e+00 +0.0000000000e+00 +1.2000000000e+02 1.2000000000e+02 0.0000000000e+00 0.0000e+00 -1.0000e+00
       11 -1    0    0    0    0 -0.0000000000e+00 -0.0000000000e+00 -1.2000000000e+02 1.2000000000e+02 0.0000000000e+00 0.0000e+00 1.0000e+00
       23  2    1    2    0    0 -2.2388926298e+01 -4.1266177477e+01 -6.6555065727e+00 1.0630719454e+02 9.5146005796e+01 0.0000e+00 0.0000e+00
       25  2    1    2    0    0 +2.2388926298e+01 +4.1266177477e+01 +6.6555065727e+00 1.3369280546e+02 1.2500123615e+02 0.0000e+00 0.0000e+00
      -11  1    3    3    0    0 -3.5222747761e+01 -4.0958012697e+01 -4.2178110809e+01 6.8536076598e+01 0.0000000000e+00 0.0000e+00 1.0000e+00
       11  1    3    3    0    0 +1.2833821463e+01 -3.0816478012e-01 +3.5522604237e+01 3.7771117943e+01 0.0000000000e+00 0.0000e+00 -1.0000e+00
        5  1    4    4  501    0 -7.9560185790e+00 +4.3105977775e+00 +2.4846045231e+00 1.0494891351e+01 4.7000000000e+00 0.0000e+00 1.0000e+00
       -5  1    4    4    0  501 -2.7024667288e+00 +1.2898854542e+01 +2.3662098089e+00 1.4190585744e+01 4.7000000000e+00 0.0000e+00 -1.0000e+00
        5  1    4    4  502    0 +4.5404372607e+01 -2.5744660339e+00 -3.7912740956e+01 5.9394030458e+01 4.7000000000e+00 0.0000e+00 -1.0000e+00
       -5  1    4    4    0  502 -1.2356961001e+01 +2.6631191192e+01 +3.9717433196e+01 4.9613297907e+01 4.7000000000e+00 0.0000e+00 1.0000e+00
</event>
<event>
10      1 +4.6527485e-10 2.40000000e+02 7.81860800e-03 1.03012300e-01
      -11 -1    0    0    0    0 +0.0000000000e+00 +0.0000000000e+00 +1.2000000000e+02 1.2000000000e+02 0.0000000000e+00 0.0000e+00 -1.0000e+00
       11 -1    0    0    0    0 -0.0000000000e+00 -0.0000000000e+00 -1.2000000000e+02 1.2000000000e+02 0.0000000000e+00 0.0000e+00 1.0000e+00
       23  2    1    2    0    0 -4.7391100541e+01 +1.3051545159e+01 +2.1953162236e+01 1.0390163601e+02 8.8867032092e+01 0.0000e+00 0.0000e+00
       25  2    1    2    0    0 +4.7391100541e+01 -1.3051545159e+01 -2.1953162236e+01 1.3609836399e+02 1.2499825641e+02 0.0000e+00 0.0000e+00
      -13  1    3    3    0    0 -4.6678105977e+01 +4.0447008134e+01 -9.1606251090e+00 6.2439755741e+01 0.0000000000e+00 0.0000e+00 1.0000e+00
       13  1    3    3    0    0 -7.1299456345e-01 -2.7395462975e+01 +3.1113787345e+01 4.1461880274e+01 0.0000000000e+00 0.0000e+00 -1.0000e+00
        5  1    4    4  501    0 -1.4130496523e+00 -7.6368175562e-01 +5.4224503659e+00 7.3534268960e+00 4.7000000000e+00 0.0000e+00 1.0000e+00
       -5  1    4    4    0  501 -2.6893174867e+01 +1.9002692280e+01 +1.3324322966e+01 3.5832565507e+01 4.7000000000e+00 0.0000e+00 1.0000e+00
        5  1    4    4  502    0 +1.2727458620e+01 -6.3740899594e+00 -1.2041460959e+01 1.9227688571e+01 4.7000000000e+00 0.0000e+00 1.0000e+00
       -5  1    4    4    0  502 +6.2969866440e+01 -2.4916465724e+01 -2.8658474609e+01 7.3684683012e+01 4.7000000000e+00 0.0000e+00 -1.0000e+00
</event>
<event>
10      1 +4.6527485e-10 2.40000000e+02 7.81860800e-03 1.03012300e-01
      -11 -1    0    0    0    0 +0.0000000000e+00 +0.0000000000e+00 +1.2000000000e+02 1.2000000000e+02 0.0000000000e+00 0.0000e+00 1.0000e+00
       11 -1    0    0    0    0 -0.0000000000e+00 -0.0000000000e+00 -1.2000000000e+02 1.2000000000e+02 0.0000000000e+00 0.0000e+00 -1.0000e+00
       23  2    1    2    0    0 -4.8389546192e+01 +1.0565157696e+01 +1.0239606608e+01 1.0515536406e+02 9.2193439619e+01 0.0000e+00 0.0000e+00
       25  2    1    2    0    0 +4.8389546192e+01 -1.0565157696e+01 -1.0239606608e+01 1.3484463594e+02 1.2500022224e+02 0.0000e+00 0.0000e+00
      -13  1    3    3    0    0 +2.1435340129e+01 +2.4298830577e+01 -3.7891342427e+00 3.2623067180e+01 0.0000000000e+00 0.0000e+00 1.0000e+00
       13  1    3    3    0    0 -6.9824886322e+01 -1.3733672881e+01 +1.4028740850e+01 7.2532296879e+01 0.0000000000e+00 0.0000e+00 -1.0000e+00
        5  1    4    4  501    0 -1.0068018381e+01 +1.8188213382e+01 +1.3830681238e+01 2.5407751645e+01 4.7000000000e+00 0.0000e+00 -1.0000e+00
       -5  1    4    4    0  501 -1.3259796522e+01 +1.3215351271e+01 -1.2588282422e+00 1.9342759927e+01 4.7000000000e+00 0.0000e+00 -1.0000e+00
        5  1    4    4  502    0 +3.1229521300e+01 -4.7390263112e+00 -9.2984193181e+00 3.3260967707e+01 4.7000000000e+00 0.0000e+00 -1.0000e+00
       -5  1    4    4    0  502 +4.0487839796e+01 -3.7229696039e+01 -1.3513040285e+01 5.6833156663e+01 4.7000000000e+00 0.0000e+00 -1.0000e+00
</event>
<event>
10      1 +4.6527485e-10 2.40000000e+02 7.81860800e-03 1.03012300e-01
      -11 -1    0    0    0    0 +0.0000000000e+00 +0.0000000000e+00 +1.2000000000e+02 1.2000000000e+02 0.0000000000e+00 0.0000e+00 1.0000e+00
       11 -1    0    0    0    0 -0.0000000000e+00 -0.0000000000e+00 -1.2000000000e+02 1.2000000000e+02 0.0000000000e+00 0.0000e+00 -1.0000e+00
       23  2    1    2    0    0 +1.2076618875e+01 -7.3201269744e+00 +5.5066982228e+01 1.0268193314e+02 8.5508934495e+01 0.0000e+00 0.0000e+00
       25  2    1    2    0    0 -1.2076618875e+01 +7.3201269744e+00 -5.5066982228e+01 1.3731806686e+02 1.2499779987e+02 0.0000e+00 0.0000e+00
      -13  1    3    3    0    0 +1.9488744551e+01 +2.0208151858e+01 +6.6331776536e+01 7.2028363469e+01 0.0000000000e+00 0.0000e+00 1.0000e+00
       13  1    3    3    0    0 -7.4121256763e+00 -2.7528278833e+01 -1.1264794307e+01 3.0653569667e+01 0.0000000000e+00 0.0000e+00 -1.0000e+00
        5  1    4    4  501    0 -1.1793672560e+01 -1.2394508585e+01 -1.7520259348e+01 2.4935196874e+01 4.7000000000e+00 0.0000e+00 1.0000e+00
       -5  1    4    4    0  501 -4.5130691759e+01 -1.0366580638e+01 -2.2063368913e+01 5.1508519494e+01 4.7000000000e+00 0.0000e+00 1.0000e+00
        5  1    4    4  502    0 +2.2315249764e+01 +8.1768791819e+00 +2.5149434106e+00 2.4356655467e+01 4.7000000000e+00 0.0000e+00 -1.0000e+00
       -5  1    4    4    0  502 +2.2532495680e+01 +2.1904337015e+01 -1.7998297379e+01 3.6517695029e+01 4.7000000000e+00 0.0000e+00 -1.0000e+00
</event>
<event>
10      1 +4.6527485e-10 2.40000000e+02 7.81860800e-03 1.03012300e-01
      -11 -1    0    0    0    0 +0.0000000000e+00 +0.0000000000e+00 +1.2000000000e+02 1.2000000000e+02 0.0000000000e+00 0.0000e+00 1.0000e+00
       11 -1    0    0    0    0 -0.0000000000e+00 -0.0000000000e+00 -1.2000000000e+02 1.2000000000e+02 0.0000000000e+00 0.0000e+00 -1.0000e+00
       23  2    1    2    0    0 +2.3833117804e+01 +4.7994814331e+01 +3.2289274297e+00 1.0396050811e+02 8.9027195666e+01 0.0000e+00 0.0000e+00
       25  2    1    2    0    0 -2.3833117804e+01 -4.7994814331e+01 -3.2289274297e+00 1.3603949189e+02 1.2499919069e+02 0.0000e+00 0.0000e+00
      -11  1    3    3    0    0 +5.5970848026e+00 -1.5301055787e+01 +2.8971518161e+01 3.3238509760e+01 0.0000000000e+00 0.0000e+00 1.0000e+00
       11  1    3    3    0    0 +1.8236033002e+01 +6.3295870119e+01 -2.5742590732e+01 7.0721998355e+01 0.0000000000e+00 0.0000e+00 -1.0000e+00
        5  1    4    4  501    0 +9.6924813873e+00 -2.9168621492e+00 -1.7377758393e+01 2.0652572891e+01 4.7000000000e+00 0.0000e+00 1.0000e+00
       -5  1    4    4    0  501 -2.3730007741e-01 -2.6967097048e+01 -3.8934138871e+01 4.7594514433e+01 4.7000000000e+00 0.0000e+00 1.0000e+00
        5  1    4    4  502    0 -2.8762736375e+01 -2.0028587618e+01 +4.4221402876e+01 5.6622096377e+01 4.7000000000e+00 0.0000e+00 1.0000e+00
       -5  1    4    4    0  502 -4.5255627387e+00 +1.9177324837e+00 +8.8615669578e+00 1.1170308184e+01 4.7000000000e+00 0.0000e+00 -1.0000e+00
</event>
<event>
10      1 +4.6527485e-10 2.40000000e+02 7.81860800e-03 1.03012300e-01
      -11 -1    0    0    0    0 +0.0000000000e+00 +0.0000000000e+00 +1.2000000000e+02 1.2000000000e+02 0.0000000000e+00 0.0000e+00 -1.0000e+00
       11 -1    0    0    0    0 -0.0000000000e+00 -0.0000000000e+00 -1.2000000000e+02 1.2000000000e+02 0.0000000000e+00 0.0000e+00 1.0000e+00
       23  2    1    2    0    0 +1.1112811760e+01 +5.1538212810e+01 -1.1305762248e+01 1.0386690706e+02 8.8774051154e+01 0.0000e+00 0.0000e+00
       25  2    1    2    0    0 -1.1112811760e+01 -5.1538212810e+01 +1.1305762248e+01 1.3613309294e+02 1.2499886706e+02 0.0000e+00 0.0000e+00
      -13  1    3    3    0    0 +2.8746215491e+01 -1.6251029802e+01 -7.4571448083e-01 3.3030243183e+01 0.0000000000e+00 0.0000e+00 -1.0000e+00
       13  1    3    3    0    0 -1.7633403730e+01 +6.7789242612e+01 -1.0560047767e+01 7.0836663881e+01 0.0000000000e+00 0.0000e+00 1.0000e+00
        5  1    4    4  501    0 -1.3136999509e+01 -5.2289768763e+01 +4.2638932107e+01 6.8898252551e+01 4.7000000000e+00 0.0000e+00 1.0000e+00
       -5  1    4    4    0  501 +4.5894417082e+00 -1.6856945418e+01 +7.4529727311e+00 1.9566716294e+01 4.7000000000e+00 0.0000e+00 1.0000e+00
        5  1    4    4  502    0 -5.8090607265e-01 +4.4917008397e+00 -1.2863644364e-01 6.5283516781e+00 4.7000000000e+00 0.0000e+00 1.0000e+00
       -5  1    4    4    0  502 -1.9843478869e+00 +1.3116800531e+01 -3.8657506146e+01 4.1139772412e+01 4.7000000000e+00 0.0000e+00 1.0000e+00
</event>
<event>
10      1 +4.6527485e-10 2.40000000e+02 7.81860800e-03 1.03012300e-01
      -11 -1    0    0    0    0 +0.0000000000e+00 +0.0000000000e+00 +1.2000000000e+02 1.2000000000e+02 0.0000000000e+00 0.0000e+00 1.0000e+00
       11 -1    0    0    0    0 -0.0000000000e+00 -0.0000000000e+00 -1.2000000000e+02 1.2000000000e+02 0.0000000000e+00 0.0000e+00 -1.0000e+00
       23  2    1    2    0    0 +2.4083511959e+01 -4.7113912737e+01 -3.8914884642e+00 1.0420808544e+02 8.9690830448e+01 0.0000e+00 0.0000e+00
       25  2    1    2    0    0 -2.4083511959e+01 +4.7113912737e+01 +3.8914884642e+00 1.3579191456e+02 1.2499825621e+02 0.0000e+00 0.0000e+00
      -13  1    3    3    0    0 -3.1519168961e+01 -3.2945044745e+01 -9.4388309003e+00 4.6560987038e+01 0.0000000000e+00 0.0000e+00 1.0000e+00
       13  1    3    3    0    0 +5.5602680921e+01 -1.4168867992e+01 +5.5473424361e+00 5.7647098399e+01 0.0000000000e+00 0.0000e+00 -1.0000e+00
        5  1    4    4  501    0 -4.0479928487e+00 -1.3047821614e+00 +3.2361087558e+00 7.1169587937e+00 4.7000000000e+00 0.0000e+00 -1.0000e+00
       -5  1    4    4    0  502 +6.3063841974e+00 +4.2578012665e+01 -3.8354984375e+01 5.7843344220e+01 4.7000000000e+00 0.0000e+00 1.0000e+00
        5  1    4    4  502    0 -3.6292284511e+01 -1.0196127209e+01 +3.3413542704e+01 5.0592941811e+01 4.7000000000e+00 0.0000e+00 1.0000e+00
       -5  1    4    4    0  501 +9.9503812031e+00 +1.6036809442e+01 +5.5968213797e+00 2.0238669737e+01 4.7000000000e+00 0.0000e+00 -1.0000e+00
</event>
<event>
10      1 +4.6527485e-10 2.40000000e+02 7.81860800e-03 1.03012300e-01
      -11 -1    0    0    0    0 +0.0000000000e+00 +0.0000000000e+00 +1.2000000000e+02 1.2000000000e+02 0.0000000000e+00 0.0000e+00 1.0000e+00
       11 -1    0    0    0    0 -0.0000000000e+00 -0.0000000000e+00 -1.2000000000e+02 1.2000000000e+02 0.0000000000e+00 0.0000e+00 -1.0000e+00
       23  2    1    2    0    0 -4.4799054835e+01 +2.6314648782e+01 +2.3732092038e+01 1.0256809988e+02 8.5191471794e+01 0.0000e+00 0.0000e+00
       25  2    1    2    0    0 +4.4799054835e+01 -2.6314648782e+01 -2.3732092038e+01 1.3743190012e+02 1.2499959569e+02 0.0000e+00 0.0000e+00
      -13  1    3    3    0    0 +5.5352632198e+00 +2.1993144607e+00 +4.3085209328e+01 4.3494958166e+01 0.0000000000e+00 0.0000e+00 1.0000e+00
       13  1    3    3    0    0 -5.0334318055e+01 +2.4115334321e+01 -1.9353117289e+01 5.9073141717e+01 0.0000000000e+00 0.0000e+00 -1.0000e+00
        5  1    4    4  501    0 -8.0375708693e+00 +4.9459908454e+00 -2.4671301332e+01 2.6829619460e+01 4.7000000000e+00 0.0000e+00 1.0000e+00
       -5  1    4    4    0  502 +2.8851443712e+01 -2.0603273812e+01 +2.0732125601e+01 4.1337776040e+01 4.7000000000e+00 0.0000e+00 -1.0000e+00
        5  1    4    4  502    0 +9.1394227034e+00 -4.4302992843e+00 +2.1752056685e+01 2.4462186515e+01 4.7000000000e+00 0.0000e+00 -1.0000e+00
       -5  1    4    4    0  501 +1.4845759289e+01 -6.2270665312e+00 -4.1544972992e+01 4.4802318102e+01 4.7000000000e+00 0.0000e+00 1.0000e+00
</event>
<event>
10      1 +4.6527485e-10 2.40000000e+02 7.81860800e-03 1.03012300e-01
      -11 -1    0    0    0    0 +0.0000000000e+00 +0.0000000000e+00 +1.2000000000e+02 1.2000000000e+02 0.0000000000e+00 0.0000e+00 -1.0000e+00
       11 -1    0    0    0    0 -0.0000000000e+00 -0.0000000000e+00 -1.2000000000e+02 1.2000000000e+02 0.0000000000e+00 0.0000e+00 1.0000e+00
       23  2    1    2    0    0 -1.1602075604e+01 +1.0217966045e+01 -4.7548714618e+01 1.0537170213e+02 9.2753977595e+01 0.0000e+00 0.0000e+00
       25  2    1    2    0    0 +1.1602075604e+01 -1.0217966045e+01 +4.7548714618e+01 1.3462829787e+02 1.2499953335e+02 0.0000e+00 0.0000e+00
      -13  1    3    3    0    0 -1.8651892136e+01 -3.4218032167e+01 +1.2575785641e+00 3.8991644098e+01 0.0000000000e+00 0.0000e+00 -1.0000e+00
       13  1    3    3    0    0 +7.0498165328e+00 +4.4435998212e+01 -4.8806293182e+01 6.6380058032e+01 0.0000000000e+00 0.0000e+00 1.0000e+00
        5  1    4    4  501    0 +4.1035203466e+00 -4.5567673889e+00 -7.1358051295e-01 7.7590080178e+00 4.7000000000e+00 0.0000e+00 1.0000e+00
       -5  1    4    4    0  501 -2.9189078522e+01 -4.2471331330e+01 +1.0503145942e+01 5.2803620752e+01 4.7000000000e+00 0.0000e+00 1.0000e+00
        5  1    4    4  502    0 +2.8853748739e+01 +3.7745948817e+01 +1.5842513957e+01 5.0302790349e+01 4.7000000000e+00 0.0000e+00 1.0000e+00
       -5  1    4    4    0  502 +7.8338850393e+00 -9.3581614343e-01 +2.1916635231e+01 2.3762878751e+01 4.7000000000e+00 0.0000e+00 1.0000e+00
</event>
<event>
10      1 +4.6527485e-10 2.40000000e+02 7.81860800e-03 1.03012300e-01
      -11 -1    0    0    0    0 +0.0000000000e+00 +0.0000000000e+00 +1.2000000000e+02 1.2000000000e+02 0.0000000000e+00 0.0000e+00 -1.0000e+00
       11 -1    0    0    0    0 -0.0000000000e+00 -0.0000000000e+00 -1.2000000000e+02 1.2000000000e+02 0.0000000000e+00 0.0000e+00 1.0000e+00
       23  2    1    2    0    0 +3.6490337433e+01 +3.6717258822e+01 +3.5364667489e+00 1.0465978381e+02 9.0892584560e+01 0.0000e+00 0.0000e+00
       25  2    1    2    0    0 -3.6490337433e+01 -3.6717258822e+01 -3.5364667489e+00 1.3534021619e+02 1.2499906280e+02 0.0000e+00 0.0000e+00
      -13  1    3    3    0    0 +6.0094940476e+01 +2.0302197056e+01 +2.5615976085e+01 6.8408766302e+01 0.0000000000e+00 0.0000e+00 1.0000e+00
       13  1    3    3    0    0 -2.3604603043e+01 +1.6415061766e+01 -2.2079509336e+01 3.6251017505e+01 0.0000000000e+00 0.0000e+00 -1.0000e+00
        5  1    4    4  501    0 -2.5086434148e+01 -1.5498399734e+01 +1.3686185884e+01 3.2847089013e+01 4.7000000000e+00 0.0000e+00 -1.0000e+00
       -5  1    4    4    0  501 -4.5587545422e+01 -6.0853642808e-01 +1.4403041796e+01 4.8043024750e+01 4.7000000000e+00 0.0000e+00 -1.0000e+00
        5  1    4    4  502    0 +2.8989229456e+01 -1.6201222971e+01 -3.1732135592e+01 4.6172215449e+01 4.7000000000e+00 0.0000e+00 1.0000e+00
       -5  1    4    4    0  502 +5.1944126801e+00 -4.4090996882e+00 +1.0644116255e-01 8.2778869812e+00 4.7000000000e+00 0.0000e+00 1.0000e+00
</event>
<event>
10      1 +4.6527485e-10 2.40000000e+02 7.81860800e-03 1.03012300e-01
      -11 -1    0    0    0    0 +0.0000000000e+00 +0.0000000000e+00 +1.2000000000e+02 1.2000000000e+02 0.0000000000e+00 0.0000e+00 -1.0000e+00
       11 -1    0    0    0    0 -0.0000000000e+00 -0.0000000000e+00 -1.2000000000e+02 1.2000000000e+02 0.0000000000e+00 0.0000e+00 1.0000e+00
       23  2    1    2    0    0 -4.0893996796e+01 +2.9756583436e+01 -1.3011949934e+01 1.0452949391e+02 9.0550157509e+01 0.0000e+00 0.0000e+00
       25  2    1    2    0    0 +4.0893996796e+01 -2.9756583436e+01 +1.3011949934e+01 1.3547050609e+02 1.2500069579e+02 0.0000e+00 0.0000e+00
      -11  1    3    3    0    0 -1.7840894933e+01 +6.3434917212e+00 -5.0941702407e+01 5.4346982100e+01 0.0000000000e+00 0.0000e+00 1.0000e+00
       11  1    3    3    0    0 -2.3053101863e+01 +2.3413091715e+01 +3.7929752473e+01 5.0182511813e+01 0.0000000000e+00 0.0000e+00 -1.0000e+00
        5  1    4    4  501    0 -4.5438966579e+00 -3.7511830866e+01 +3.7323357357e-03 3.8077217147e+01 4.7000000000e+00 0.0000e+00 1.0000e+00
       -5  1    4    4    0  501 -1.5406352847e+01 +8.5771568045e+00 -1.8850022489e+01 2.6236171114e+01 4.7000000000e+00 0.0000e+00 1.0000e+00
        5  1    4    4  502    0 +5.6952629739e+01 -6.5213867249e-02 +2.6459555511e+01 6.2974632709e+01 4.7000000000e+00 0.0000e+00 -1.0000e+00
       -5  1    4    4    0  502 +3.8916165610e+00 -7.5669550746e-01 +5.3986845761e+00 8.1824851177e+00 4.7000000000e+00 0.0000e+00 -1.0000e+00
</event>
<event>
10      1 +4.6527485e-10 2.40000000e+02 7.81860800e-03 1.03012300e-01
      -11 -1    0    0    0    0 +0.0000000000e+00 +0.0000000000e+00 +1.2000000000e+02 1.2000000000e+02 0.0000000000e+00 0.0000e+00 1.0000e+00
       11 -1    0    0    0    0 -0.0000000000e+00 -0.0000000000e+00 -1.2000000000e+02 1.2000000000e+02 0.0000000000e+00 0.0000e+00 -1.0000e+00
       23  2    1    2    0    0 -2.3283471250e+01 +2.4559047703e-01 +4.5617705844e+01 1.0491202079e+02 9.1560781298e+01 0.0000e+00 0.0000e+00
       25  2    1    2    0    0 +2.3283471250e+01 -2.4559047703e-01 -4.5617705844e+01 1.3508797921e+02 1.2500242674e+02 0.0000e+00 0.0000e+00
      -13  1    3    3    0    0 +3.2781480044e+01 +4.5144885191e+00 +9.5454816857e-01 3.3104640198e+01 0.0000000000e+00 0.0000e+00 -1.0000e+00
       13  1    3    3    0    0 -5.6064951294e+01 -4.2688980421e+00 +4.4663157676e+01 7.1807380593e+01 0.0000000000e+00 0.0000e+00 1.0000e+00
        5  1    4    4  501    0 -3.4950020487e+01 -2.7439398827e+01 -2.0381469956e+01 4.9111290531e+01 4.7000000000e+00 0.0000e+00 -1.0000e+00
       -5  1    4    4    0  501 -3.8526310254e+00 -4.7705188539e+00 +1.8835651091e+00 7.9522596458e+00 4.7000000000e+00 0.0000e+00 -1.0000e+00
        5  1    4    4  502    0 +4.5003818033e+01 +2.4356825635e+01 -2.8377028385e+01 5.8702166336e+01 4.7000000000e+00 0.0000e+00 -1.0000e+00
       -5  1    4    4    0  502 +1.7082304729e+01 +7.6075015691e+00 +1.2572273877e+00 1.9322262696e+01 4.7000000000e+00 0.0000e+00 -1.0000e+00
</event>
<event>
10      1 +4.6527485e-10 2.40000000e+02 7.81860800e-03 1.03012300e-01
      -11 -1    0    0    0    0 +0.0000000000e+00 +0.0000000000e+00 +1.2000000000e+02 1.2000000000e+02 0.0000000000e+00 0.0000e+00 1.0000e+00
       11 -1    0    0    0    0 -0.0000000000e+00 -0.0000000000e+00 -1.2000000000e+02 1.2000000000e+02 0.0000000000e+00 0.0000e+00 -1.0000e+00
       23  2    1    2    0    0 -3.6686071585e+01 -1.6269484729e+01 -3.0808554211e+01 1.0514660409e+02 9.2174168603e+01 0.0000e+00 0.0000e+00
       25  2    1    2    0    0 +3.6686071585e+01 +1.6269484729e+01 +3.0808554211e+01 1.3485339591e+02 1.2500282954e+02 0.0000e+00 0.0000e+00
      -11  1    3    3    0    0 +1.5650647451e+01 -7.5674168127e+00 -4.6644283109e+01 4.9778486413e+01 0.0000000000e+00 0.0000e+00 -1.0000e+00
       11  1    3    3    0    0 -5.2336719036e+01 -8.7020679163e+00 +1.5835728898e+01 5.5368117678e+01 0.0000000000e+00 0.0000e+00 1.0000e+00
        5  1    4    4  501    0 +3.3393944371e+01 +1.2221299337e+01 -7.2608325514e+00 3.6596794498e+01 4.7000000000e+00 0.0000e+00 1.0000e+00
       -5  1    4    4    0  501 +2.1154498723e+01 +7.0059338186e+00 -2.1854959068e+01 3.1564618812e+01 4.7000000000e+00 0.0000e+00 1.0000e+00
        5  1    4    4  502    0 -1.7967403667e+01 -7.7875985910e+00 +5.4297650863e+01 5.7911995093e+01 4.7000000000e+00 0.0000e+00 -1.0000e+00
       -5  1    4    4    0  502 +1.0503215779e-01 +4.8298501646e+00 +5.6266949669e+00 8.7799875067e+00 4.7000000000e+00 0.0000e+00 -1.0000e+00
</event>
<event>
10      1 +4.6527485e-10 2.40000000e+02 7.81860800e-03 1.03012300e-01
      -11 -1    0    0    0    0 +0.0000000000e+00 +0.0000000000e+00 +1.2000000000e+02 1.2000000000e+02 0.0000000000e+00 0.0000e+00 -1.0000e+00
       11 -1    0    0    0    0 -0.0000000000e+00 -0.0000000000e+00 -1.2000000000e+02 1.2000000000e+02 0.0000000000e+00 0.0000e+00 1.0000e+00
       23  2    1    2    0    0 +3.2136286238e+01 +3.1399613833e+01 +2.4680143512e+01 1.0489759933e+02 9.1518960977e+01 0.0000e+00 0.0000e+00
       25  2    1    2    0    0 -3.2136286238e+01 -3.1399613833e+01 -2.4680143512e+01 1.3510240067e+02 1.2499949017e+02 0.0000e+00 0.0000e+00
      -13  1    3    3    0    0 -2.2824045336e+01 +9.7913712822e+00 +3.7008030738e+01 4.4569073764e+01 0.0000000000e+00 0.0000e+00 -1.0000e+00
       13  1    3    3    0    0 +5.4960331574e+01 +2.1608242551e+01 -1.2327887226e+01 6.0328525561e+01 0.0000000000e+00 0.0000e+00 1.0000e+00
        5  1    4    4  501    0 +1.0085038127e+01 +8.5403733817e+00 +3.1742293622e+01 3.4703158010e+01 4.7000000000e+00 0.0000e+00 -1.0000e+00
       -5  1    4    4    0  501 +7.9998686765e+00 -8.5784490683e-01 -1.7352400401e+00 9.4781250637e+00 4.7000000000e+00 0.0000e+00 1.0000e+00
        5  1    4    4  502    0 -6.5940958582e+00 +4.9767503072e+00 -2.7291855032e+00 9.8888117242e+00 4.7000000000e+00 0.0000e+00 1.0000e+00
       -5  1    4    4    0  502 -4.3627097184e+01 -4.4058892615e+01 -5.1958011590e+01 8.1032305876e+01 4.7000000000e+00 0.0000e+00 -1.0000e+00
</event>
<event>
10      1 +4.6527485e-10 2.40000000e+02 7.81860800e-03 1.03012300e-01
      -11 -1    0    0    0    0 +0.0000000000e+00 +0.0000000000e+00 +1.2000000000e+02 1.2000000000e+02 0.0000000000e+00 0.0000e+00 1.0000e+00
       11 -1    0    0    0    0 -0.0000000000e+00 -0.0000000000e+00 -1.2000000000e+02 1.2000000000e+02 0.0000000000e+00 0.0000e+00 -1.0000e+00
       23  2    1    2    0    0 +3.2720180110e+01 -1.3195119552e+01 -3.7387719529e+01 1.0484293940e+02 9.1375483610e+01 0.0000e+00 0.0000e+00
       25  2    1    2    0    0 -3.2720180110e+01 +1.3195119552e+01 +3.7387719529e+01 1.3515706060e+02 1.2499947236e+02 0.0000e+00 0.0000e+00
      -13  1    3    3    0    0 +3.9680319937e+01 +3.2490538446e+01 -2.4681367585e+01 5.6915136692e+01 0.0000000000e+00 0.0000e+00 -1.0000e+00
       13  1    3    3    0    0 -6.9601398273e+00 -4.5685657998e+01 -1.2706351943e+01 4.7927802712e+01 0.0000000000e+00 0.0000e+00 1.0000e+00
        5  1    4    4  501    0 -2.1831462725e+01 +4.6605184541e+01 -1.2938239061e+01 5.3274234118e+01 4.7000000000e+00 0.0000e+00 1.0000e+00
       -5  1    4    4    0  501 -2.1115520744e+01 +1.1647807918e+00 +1.1012473291e+01 2.4301985486e+01 4.7000000000e+00 0.0000e+00 1.0000e+00
        5  1    4    4  502    0 +4.7934262536e+00 -2.2247854471e+01 +1.0650208541e+01 2.5562881405e+01 4.7000000000e+00 0.0000e+00 1.0000e+00
       -5  1    4    4    0  502 +5.4333771061e+00 -1.2326991310e+01 +2.8663276758e+01 3.2017959586e+01 4.7000000000e+00 0.0000e+00 1.0000e+00
</event>
<event>
10      1 +4.6527485e-10 2.40000000e+02 7.81860800e-03 1.03012300e-01
      -11 -1    0    0    0    0 +0.0000000000e+00 +0.0000000000e+00 +1.2000000000e+02 1.2000000000e+02 0.0000000000e+00 0.0000e+00 1.0000e+00
       11 -1    0    0    0    0 -0.0000000000e+00 -0.0000000000e+00 -1.2000000000e+02 1.2000000000e+02 0.0000000000e+00 0.0000e+00 -1.0000e+00
       23  2    1    2    0    0 +3.5074663633e+01 -2.1210628193e+01 -3.2938047420e+01 1.0439268708e+02 9.0182012459e+01 0.0000e+00 0.0000e+00
       25  2    1    2    0    0 -3.5074663633e+01 +2.1210628193e+01 +3.2938047420e+01 1.3560731292e+02 1.2499722226e+02 0.0000e+00 0.0000e+00
      -11  1    3    3    0    0 +1.7243511097e+01 +7.2750579390e+00 +2.8656529976e+01 3.4226624917e+01 0.0000000000e+00 0.0000e+00 1.0000e+00
       11  1    3    3    0    0 +1.7831152535e+01 -2.8485686132e+01 -6.1594577396e+01 7.0166062165e+01 0.0000000000e+00 0.0000e+00 -1.0000e+00
        5  1    4    4  501    0 +6.3923021503e+00 -3.7960793571e-01 +4.2431257899e-02 7.9433890360e+00 4.7000000000e+00 0.0000e+00 -1.0000e+00
       -5  1    4    4    0  501 +2.3980887070e+01 -1.6486617523e+01 +3.7207409156e+01 4.7469704003e+01 4.7000000000e+00 0.0000e+00 -1.0000e+00
        5  1    4    4  502    0 -5.4011030653e+01 +3.2124621061e+01 +5.5995055629e+00 6.3266319421e+01 4.7000000000e+00 0.0000e+00 -1.0000e+00
       -5  1    4    4    0  502 -1.1436822200e+01 +5.9522325911e+00 -9.9112985562e+00 1.6927900458e+01 4.7000000000e+00 0.0000e+00 -1.0000e+00
</event>
<event>
10      1 +4.6527485e-10 2.40000000e+02 7.81860800e-03 1.03012300e-01
      -11 -1    0    0    0    0 +0.0000000000e+00 +0.0000000000e+00 +1.2000000000e+02 1.2000000000e+02 0.0000000000e+00 0.0000e+00 -1.0000e+00
       11 -1    0    0    0    0 -0.0000000000e+00 -0.0000000000e+00 -1.2000000000e+02 1.2000000000e+02 0.0000000000e+00 0.0000e+00 1.0000e+00
       23  2    1    2    0    0 -4.4949443325e+01 -1.8524565758e+01 +1.2459613161e+01 1.0529942642e+02 9.2569515789e+01 0.0000e+00 0.0000e+00
       25  2    1    2    0    0 +4.4949443325e+01 +1.8524565758e+01 -1.2459613161e+01 1.3470057358e+02 1.2500156227e+02 0.0000e+00 0.0000e+00
      -11  1    3    3    0    0 -2.3780362602e+01 -3.1446414358e+01 -3.4372618795e+01 5.2305444691e+01 0.0000000000e+00 0.0000e+00 1.0000e+00
       11  1    3    3    0    0 -2.1169080722e+01 +1.2921848600e+01 +4.6832231956e+01 5.2993981733e+01 0.0000000000e+00 0.0000e+00 -1.0000e+00
        5  1    4    4  501    0 -1.7727664745e+00 -9.0120564820e+00 -2.1167339761e+00 1.0532351387e+01 4.7000000000e+00 0.0000e+00 1.0000e+00
       -5  1    4    4    0  501 +1.4731505007e+00 -4.9081887167e+00 -8.8920631818e-01 7.0100768008e+00 4.7000000000e+00 0.0000e+00 -1.0000e+00
        5  1    4    4  502    0 +5.7855463539e+01 +5.1298684230e+01 -3.2934496801e+01 8.4175891707e+01 4.7000000000e+00 0.0000e+00 -1.0000e+00
       -5  1    4    4    0  502 -1.2606404241e+01 -1.8853873274e+01 +2.3480823934e+01 3.2982253682e+01 4.7000000000e+00 0.0000e+00 -1.0000e+00
</event>
<event>
10      1 +4.6527485e-10 2.40000000e+02 7.81860800e-03 1.03012300e-01
      -11 -1    0    0    0    0 +0.0000000000e+00 +0.0000000000e+00 +1.2000000000e+02 1.2000000000e+02 0.0000000000e+00 0.0000e+00 -1.0000e+00
       11 -1    0    0    0    0 -0.0000000000e+00 -0.0000000000e+00 -1.2000000000e+02 1.2000000000e+02 0.0000000000e+00 0.0000e+00 1.0000e+00
       23  2    1    2    0    0 -9.1333325167e+00 -9.5951068545e+00 +4.9248504019e+01 1.0499628988e+02 9.1778657112e+01 0.0000e+00 0.0000e+00
       25  2    1    2    0    0 +9.1333325167e+00 +9.5951068545e+00 -4.9248504019e+01 1.3500371012e+02 1.2500041104e+02 0.0000e+00 0.0000e+00
      -13  1    3    3    0    0 -2.8623357229e+01 -2.3106436790e+01 -1.2498873459e+01 3.8851329937e+01 0.0000000000e+00 0.0000e+00 1.0000e+00
       13  1    3    3    0    0 +1.9490024712e+01 +1.3511329935e+01 +6.1747377478e+01 6.6144959939e+01 0.0000000000e+00 0.0000e+00 -1.0000e+00
        5  1    4    4  501    0 -2.5299270668e+01 +2.9092192367e+01 -4.8477375888e+00 3.9140762803e+01 4.7000000000e+00 0.0000e+00 1.0000e+00
       -5  1    4    4    0  502 -1.0555718824e+01 -5.0049615062e-01 +1.5119963892e+00 1.1664040010e+01 4.7000000000e+00 0.0000e+00 1.0000e+00
        5  1    4    4  502    0 +4.6840187128e+01 -2.7840244212e+01 -4.9129843071e+01 7.3518118910e+01 4.7000000000e+00 0.0000e+00 -1.0000e+00
       -5  1    4    4    0  501 -1.8518651193e+00 +8.8436548499e+00 +3.2170802507e+00 1.0680788401e+01 4.7000000000e+00 0.0000e+00 -1.0000e+00
</event>
<event>
10      1 +4.6527485e-10 2.40000000e+02 7.81860800e-03 1.03012300e-01
      -11 -1    0    0    0    0 +0.0000000000e+00 +0.0000000000e+00 +1.2000000000e+02 1.2000000000e+02 0.0000000000e+00 0.0000e+00 -1.0000e+00
       11 -1    0    0    0    0 -0.0000000000e+00 -0.0000000000e+00 -1.2000000000e+02 1.2000000000e+02 0.0000000000e+00 0.0000e+00 1.0000e+00
       23  2    1    2    0    0 -1.2031851048e+01 -2.4110441352e+01 +3.9195166618e+01 1.0625506191e+02 9.5014726613e+01 0.0000e+00 0.0000e+00
       25  2    1    2    0    0 +1.2031851048e+01 +2.4110441352e+01 -3.9195166618e+01 1.3374493809e+02 1.2500147422e+02 0.0000e+00 0.0000e+00
      -13  1    3    3    0    0 -6.6541077934e+00 -5.3765595861e+01 +5.0503127512e+01 7.4064717223e+01 0.0000000000e+00 0.0000e+00 -1.0000e+00
       13  1    3    3    0    0 -5.3777432550e+00 +2.9655154510e+01 -1.1307960894e+01 3.2190344687e+01 0.0000000000e+00 0.0000e+00 1.0000e+00
        5  1    4    4  501    0 -2.2003861551e+00 -3.1812954652e-01 -3.7786944386e-01 5.2130308801e+00 4.7000000000e+00 0.0000e+00 -1.0000e+00
       -5  1    4    4    0  501 -1.7650440971e+01 -8.7272332102e+00 +3.4060225164e+01 3.9621857657e+01 4.7000000000e+00 0.0000e+00 -1.0000e+00
        5  1    4    4  502    0 +2.7842091161e+01 +2.8360190119e+01 -6.9863204267e+01 8.0513599685e+01 4.7000000000e+00 0.0000e+00 -1.0000e+00
       -5  1    4    4    0  502 +4.0405870133e+00 +4.7956139891e+00 -3.0143180718e+00 8.3964498678e+00 4.7000000000e+00 0.0000e+00 -1.0000e+00
</event>
<event>
10      1 +4.6527485e-10 2.40000000e+02 7.81860800e-03 1.03012300e-01
      -11 -1    0    0    0    0 +0.0000000000e+00 +0.0000000000e+00 +1.2000000000e+02 1.2000000000e+02 0.0000000000e+00 0.0000e+00 1.0000e+00
       11 -1    0    0    0    0 -0.0000000000e+00 -0.0000000000e+00 -1.2000000000e+02 1.2000000000e+02 0.0000000000e+00 0.0000e+00 -1.0000e+00
       23  2    1    2    0    0 +8.6352568963e+00 +1.0706474542e+01 +5.2580606910e+01 1.0368838836e+02 8.8302691907e+01 0.0000e+00 0.0000e+00
       25  2    1    2    0    0 -8.6352568963e+00 -1.0706474542e+01 -5.2580606910e+01 1.3631161164e+02 1.2500775571e+02 0.0000e+00 0.0000e+00
      -13  1    3    3    0    0 -2.2274498967e+01 -3.0554796896e+01 +2.2445103143e+01 4.3971940743e+01 0.0000000000e+00 0.0000e+00 -1.0000e+00
       13  1    3    3    0    0 +3.0909755864e+01 +4.1261271438e+01 +3.0135503767e+01 5.9716447613e+01 0.0000000000e+00 0.0000e+00 1.0000e+00
        5  1    4    4  501    0 -1.8163552350e+00 +1.0316459184e+01 -8.7094105471e-01 1.1514209255e+01 4.7000000000e+00 0.0000e+00 -1.0000e+00
       -5  1    4    4    0  502 +4.8141315903e+00 -1.4328137976e+00 -1.7025549343e+01 1.8362683594e+01 4.7000000000e+00 0.0000e+00 1.0000e+00
        5  1    4    4  502    0 +3.5783167845e+01 -2.3354272208e+01 -3.9520497238e+01 5.8393636925e+01 4.7000000000e+00 0.0000e+00 1.0000e+00
       -5  1    4    4    0  501 -4.7416201096e+01 +3.7641522791e+00 +4.8363807253e+00 4.8041081871e+01 4.7000000000e+00 0.0000e+00 -1.0000e+00
</event>
<event>
10      1 +4.6527485e-10 2.40000000e+02 7.81860800e-03 1.03012300e-01
      -11 -1    0    0    0    0 +0.0000000000e+00 +0.0000000000e+00 +1.2000000000e+02 1.2000000000e+02 0.0000000000e+00 0.0000e+00 -1.0000e+00
       11 -1    0    0    0    0 -0.0000000000e+00 -0.0000000000e+00 -1.2000000000e+02 1.2000000000e+02 0.0000000000e+00 0.0000e+00 1.0000e+00
       23  2    1    2    0    0 -2.8336169813e+01 -4.0606279397e+01 -3.4069475934e+00 1.0550851570e+02 9.3105483979e+01 0.0000e+00 0.0000e+00
       25  2    1    2    0    0 +2.8336169813e+01 +4.0606279397e+01 +3.4069475934e+00 1.3449148430e+02 1.2499817443e+02 0.0000e+00 0.0000e+00
      -13  1    3    3    0    0 -5.9491864739e+01 -3.7500025282e+01 +1.0759157240e+01 7.1142767242e+01 0.0000000000e+00 0.0000e+00 -1.0000e+00
       13  1    3    3    0    0 +3.1155694925e+01 -3.1062541146e+00 -1.4166104834e+01 3.4365748458e+01 0.0000000000e+00 0.0000e+00 1.0000e+00
        5  1    4    4  501    0 +1.4245250040e+00 -8.8446309104e+00 -9.2666324571e+00 1.3719229006e+01 4.7000000000e+00 0.0000e+00 -1.0000e+00
       -5  1    4    4    0  502 -2.4396928742e+01 +4.4031960838e+01 +2.9716209750e+01 5.8644410042e+01 4.7000000000e+00 0.0000e+00 -1.0000e+00
        5  1    4    4  502    0 +4.2234639858e+01 +5.8966313932e+00 -2.4557943744e+01 4.9433972798e+01 4.7000000000e+00 0.0000e+00 -1.0000e+00
       -5  1    4    4    0  501 +9.0739336943e+00 -4.7768192324e-01 +7.5153140441e+00 1.2693872454e+01 4.7000000000e+00 0.0000e+00 -1.0000e+00
</event>
<event>
10      1 +4.6527485e-10 2.40000000e+02 7.81860800e-03 1.03012300e-01
      -11 -1    0    0    0    0 +0.0000000000e+00 +0.0000000000e+00 +1.2000000000e+02 1.2000000000e+02 0.0000000000e+00 0.0000e+00 1.0000e+00
       11 -1    0    0    0    0 -0.0000000000e+00 -0.0000000000e+00 -1.2000000000e+02 1.2000000000e+02 0.0000000000e+00 0.0000e+00 -1.0000e+00
       23  2    1    2    0    0 +1.9332602799e+01 -2.8611573607e+01 -3.2793623970e+01 1.0623625992e+02 9.4964990780e+01 0.0000e+00 0.0000e+00
       25  2    1    2    0    0 -1.9332602799e+01 +2.8611573607e+01 +3.2793623970e+01 1.3376374008e+02 1.2499977884e+02 0.0000e+00 0.0000e+00
      -13  1    3    3    0    0 +5.6006896590e+01 -5.4892886753e+00 -2.7258678518e+01 6.2529515514e+01 0.0000000000e+00 0.0000e+00 1.0000e+00
       13  1    3    3    0    0 -3.6674293792e+01 -2.3122284932e+01 -5.5349454520e+00 4.3706744408e+01 0.0000000000e+00 0.0000e+00 -1.0000e+00
        5  1    4    4  501    0 +4.6825674236e+00 -9.1309139492e+00 -3.4626884082e+01 3.6419927628e+01 4.7000000000e+00 0.0000e+00 1.0000e+00
       -5  1    4    4    0  502 -1.4818701026e+01 +2.2515543281e+01 +2.1839897530e+01 3.5008780519e+01 4.7000000000e+00 0.0000e+00 -1.0000e+00
        5  1    4    4  502    0 -1.0765433699e+00 +1.9541261832e+01 +4.7718438259e+01 5.1789566609e+01 4.7000000000e+00 0.0000e+00 -1.0000e+00
       -5  1    4    4    0  501 -8.1199258266e+00 -4.3143175571e+00 -2.1378277372e+00 1.0545465321e+01 4.7000000000e+00 0.0000e+00 1.0000e+00
</event>
<event>
10      1 +4.6527485e-10 2.40000000e+02 7.81860800e-03 1.03012300e-01
      -11 -1    0    0    0    0 +0.0000000000e+00 +0.0000000000e+00 +1.2000000000e+02 1.2000000000e+02 0.0000000000e+00 0.0000e+00 1.0000e+00
       11 -1    0    0    0    0 -0.0000000000e+00 -0.0000000000e+00 -1.2000000000e+02 1.2000000000e+02 0.0000000000e+00 0.0000e+00 -1.0000e+00
       23  2    1    2    0    0 -3.7243609277e+01 -2.6163247245e+01 -2.6433181069e+01 1.0436795358e+02 9.0124107398e+01 0.0000e+00 0.0000e+00
       25  2    1    2    0    0 +3.7243609277e+01 +2.6163247245e+01 +2.6433181069e+01 1.3563204642e+02 1.2500294803e+02 0.0000e+00 0.0000e+00
      -11  1    3    3    0    0 -3.2659302182e+01 -5.2092328634e+00 +2.9591090047e+01 4.4377908200e+01 0.0000000000e+00 0.0000e+00 1.0000e+00
       11  1    3    3    0    0 -4.5843070952e+00 -2.0954014381e+01 -5.6024271117e+01 5.9990045378e+01 0.0000000000e+00 0.0000e+00 -1.0000e+00
        5  1    4    4  501    0 +2.9715829431e+01 -1.4189959785e+01 +1.9254887456e+01 3.8434700056e+01 4.7000000000e+00 0.0000e+00 1.0000e+00
       -5  1    4    4    0  501 -9.8958743083e+00 -2.3909792373e+01 -1.3631587263e+00 2.6335426736e+01 4.7000000000e+00 0.0000e+00 1.0000e+00
        5  1    4    4  502    0 -1.1406936998e+00 +2.3906087103e+01 +9.5167722956e+00 2.6181312756e+01 4.7000000000e+00 0.0000e+00 -1.0000e+00
       -5  1    4    4    0  502 +1.8564347854e+01 +4.0356912299e+01 -9.7531995566e-01 4.4680606874e+01 4.7000000000e+00 0.0000e+00 -1.0000e+00
</event>
<event>
10      1 +4.6527485e-10 2.40000000e+02 7.81860800e-03 1.03012300e-01
      -11 -1    0    0    0    0 +0.0000000000e+00 +0.0000000000e+00 +1.2000000000e+02 1.2000000000e+02 0.0000000000e+00 0.0000e+00 -1.0000e+00
       11 -1    0    0    0    0 -0.0000000000e+00 -0.0000000000e+00 -1.2000000000e+02 1.2000000000e+02 0.0000000000e+00 0.0000e+00 1.0000e+00
       23  2    1    2    0    0 -9.7320817281e+00 +2.9761379566e+01 +3.8614894450e+01 1.0547649760e+02 9.3025417731e+01 0.0000e+00 0.0000e+00
       25  2    1    2    0    0 +9.7320817281e+00 -2.9761379566e+01 -3.8614894450e+01 1.3452350240e+02 1.2500003798e+02 0.0000e+00 0.0000e+00
      -11  1    3    3    0    0 -3.7898717383e+01 +1.2062104607e+01 -1.4894568771e+01 4.2469463449e+01 0.0000000000e+00 0.0000e+00 1.0000e+00
       11  1    3    3    0    0 +2.8166635655e+01 +1.7699274959e+01 +5.3509463221e+01 6.3007034150e+01 0.0000000000e+00 0.0000e+00 -1.0000e+00
        5  1    4    4  501    0 +3.5750353803e-02 +5.4367056630e+00 -1.5069130392e+01 1.6695141129e+01 4.7000000000e+00 0.0000e+00 1.0000e+00
       -5  1    4    4    0  501 +2.1830117675e+01 +3.4758728631e+01 -7.9541373817e+00 4.2072337173e+01 4.7000000000e+00 0.0000e+00 1.0000e+00
        5  1    4    4  502    0 -1.3566856757e+01 -2.6833388645e+01 -3.0941223363e+00 3.0590095480e+01 4.7000000000e+00 0.0000e+00 1.0000e+00
       -5  1    4    4    0  502 +1.4330704563e+00 -4.3123425216e+01 -1.2497504340e+01 4.5165928619e+01 4.7000000000e+00 0.0000e+00 1.0000e+00
</event>
<event>
10      1 +4.6527485e-10 2.40000000e+02 7.81860800e-03 1.03012300e-01
      -11 -1    0    0    0    0 +0.0000000000e+00 +0.0000000000e+00 +1.2000000000e+02 1.2000000000e+02 0.0000000000e+00 0.0000e+00 -1.0000e+00
       11 -1    0    0    0    0 -0.0000000000e+00 -0.0000000000e+00 -1.2000000000e+02 1.2000000000e+02 0.0000000000e+00 0.0000e+00 1.0000e+00
       23  2    1    2    0    0 -3.9798154645e+01 +1.8758158516e+01 +2.7117391472e+01 1.0474226247e+02 9.1103386346e+01 0.0000e+00 0.0000e+00
       25  2    1    2    0    0 +3.9798154645e+01 -1.8758158516e+01 -2.7117391472e+01 1.3525773753e+02 1.2499416393e+02 0.0000e+00 0.0000e+00
      -11  1    3    3    0    0 +1.8349993948e+01 -1.5083826020e+01 +2.8937773275e+01 3.7438466948e+01 0.0000000000e+00 0.0000e+00 1.0000e+00
       11  1    3    3    0    0 -5.8148148593e+01 +3.3841984537e+01 -1.8203818025e+00 6.7303795525e+01 0.0000000000e+00 0.0000e+00 -1.0000e+00
        5  1    4    4  501    0 +1.0337257466e+01 +2.1858359564e+01 -1.8444054322e+01 3.0772063867e+01 4.7000000000e+00 0.0000e+00 1.0000e+00
       -5  1    4    4    0  501 +3.3460523221e+01 +7.1898007591e+00 -3.2139866112e+01 4.7184328361e+01 4.7000000000e+00 0.0000e+00 1.0000e+00
        5  1    4    4  502    0 +6.5742078245e+00 -2.9738914363e+01 +1.4147053361e+01 3.3909472936e+01 4.7000000000e+00 0.0000e+00 -1.0000e+00
       -5  1    4    4    0  502 -1.0573833867e+01 -1.8067404477e+01 +9.3194756012e+00 2.3391872363e+01 4.7000000000e+00 0.0000e+00 -1.0000e+00
</event>
<event>
10      1 +4.6527485e-10 2.40000000e+02 7.81860800e-03 1.03012300e-01
      -11 -1    0    0    0    0 +0.0000000000e+00 +0.0000000000e+00 +1.2000000000e+02 1.2000000000e+02 0.0000000000e+00 0.0000e+00 -1.0000e+00
       11 -1    0    0    0    0 -0.0000000000e+00 -0.0000000000e+00 -1.2000000000e+02 1.2000000000e+02 0.0000000000e+00 0.0000e+00 1.0000e+00
       23  2    1    2    0    0 +2.6635123848e-01 -2.2104913354e+01 -3.2547632965e+01 1.0895433356e+02 1.0160216657e+02 0.0000e+00 0.0000e+00
       25  2    1    2    0    0 -2.6635123848e-01 +2.2104913354e+01 +3.2547632965e+01 1.3104566644e+02 1.2499968058e+02 0.0000e+00 0.0000e+00
      -11  1    3    3    0    0 -1.2299665559e+01 +1.6980524510e+01 -5.7299004826e+01 6.1014719040e+01 0.0000000000e+00 0.0000e+00 1.0000e+00
       11  1    3    3    0    0 +1.2566016797e+01 -3.9085437864e+01 +2.4751371861e+01 4.7939614518e+01 0.0000000000e+00 0.0000e+00 -1.0000e+00
        5  1    4    4  501    0 +1.5254674643e+01 -1.2355525979e+01 -2.0360273646e+01 2.8670452798e+01 4.7000000000e+00 0.0000e+00 -1.0000e+00
       -5  1    4    4    0  501 +1.9995592282e+01 +4.8289563026e+00 -7.8654314017e+00 2.2518826364e+01 4.7000000000e+00 0.0000e+00 -1.0000e+00
        5  1    4    4  502    0 -3.4541392436e+01 +3.1017793049e+01 +5.2977018598e+01 7.0596499748e+01 4.7000000000e+00 0.0000e+00 -1.0000e+00
       -5  1    4    4    0  502 -9.7522572789e-01 -1.3863100187e+00 +7.7963194147e+00 9.2598875319e+00 4.7000000000e+00 0.0000e+00 -1.0000e+00
</event>
<event>
10      1 +4.6527485e-10 2.40000000e+02 7.81860800e-03 1.03012300e-01
      -11 -1    0    0    0    0 +0.0000000000e+00 +0.0000000000e+00 +1.2000000000e+02 1.2000000000e+02 0.0000000000e+00 0.0000e+00 1.0000e+00
       11 -1    0    0    0    0 -0.0000000000e+00 -0.0000000000e+00 -1.2000000000e+02 1.2000000000e+02 0.0000000000e+00 0.0000e+00 -1.0000e+00
       23  2    1    2    0    0 +2.4260401878e+01 +1.0685547266e+01 +4.6082806812e+01 1.0416334494e+02 8.9574713649e+01 0.0000e+00 0.0000e+00
       25  2    1    2    0    0 -2.4260401878e+01 -1.0685547266e+01 -4.6082806812e+01 1.3583665506e+02 1.2500089502e+02 0.0000e+00 0.0000e+00
      -13  1    3    3    0    0 +8.0279484697e+00 +4.2755605905e+01 +5.1933206526e+01 6.7746200875e+01 0.0000000000e+00 0.0000e+00 1.0000e+00
       13  1    3    3    0    0 +1.6232453409e+01 -3.2070058640e+01 -5.8503997141e+00 3.6417144062e+01 0.0000000000e+00 0.0000e+00 -1.0000e+00
        5  1    4    4  501    0 +1.8414973276e+01 -1.8929630536e+01 -1.6054274355e+01 3.1261347988e+01 4.7000000000e+00 0.0000e+00 1.0000e+00
       -5  1    4    4    0  501 +2.3647640823e+00 -2.8804397267e+01 -3.0299962845e+01 4.2136245199e+01 4.7000000000e+00 0.0000e+00 1.0000e+00
        5  1    4    4  502    0 -3.5313700125e+01 +3.4497967916e+01 -5.5588485167e+00 4.9901482981e+01 4.7000000000e+00 0.0000e+00 -1.0000e+00
       -5  1    4    4    0  502 -9.7264391114e+00 +2.5505126215e+00 +5.8302789051e+00 1.2537578894e+01 4.7000000000e+00 0.0000e+00 -1.0000e+00
</event>
<event>
10      1 +4.6527485e-10 2.40000000e+02 7.81860800e-03 1.03012300e-01
      -11 -1    0    0    0    0 +0.0000000000e+00 +0.0000000000e+00 +1.2000000000e+02 1.2000000000e+02 0.0000000000e+00 0.0000e+00 1.0000e+00
       11 -1    0    0    0    0 -0.0000000000e+00 -0.0000000000e+00 -1.2000000000e+02 1.2000000000e+02 0.0000000000e+00 0.0000e+00 -1.0000e+00
       23  2    1    2    0    0 +1.7808026310e+01 +4.9636989418e+01 -9.5517731833e+00 1.0399524531e+02 8.9122489625e+01 0.0000e+00 0.0000e+00
       25  2    1    2    0    0 -1.7808026310e+01 -4.9636989418e+01 +9.5517731833e+00 1.3600475469e+02 1.2500040163e+02 0.0000e+00 0.0000e+00
      -13  1    3    3    0    0 -1.8009734717e+01 +1.3151147614e+01 +3.1382654656e+01 3.8499016110e+01 0.0000000000e+00 0.0000e+00 1.0000e+00
       13  1    3    3    0    0 +3.5817761027e+01 +3.6485841804e+01 -4.0934427839e+01 6.5496229202e+01 0.0000000000e+00 0.0000e+00 -1.0000e+00
        5  1    4    4  501    0 -5.6208145761e-01 -4.2068060751e+01 +1.5984305635e+01 4.5250698310e+01 4.7000000000e+00 0.0000e+00 1.0000e+00
       -5  1    4    4    0  502 -7.3082616730e+00 +2.0759812782e+01 -1.6079429322e+01 2.7658968938e+01 4.7000000000e+00 0.0000e+00 -1.0000e+00
        5  1    4    4  502    0 -1.7393135702e+01 +2.1834240531e+00 -1.4474434326e+01 2.3213956130e+01 4.7000000000e+00 0.0000e+00 -1.0000e+00
       -5  1    4    4    0  501 +7.4554525225e+00 -3.0512165502e+01 +2.4121331196e+01 3.9881131311e+01 4.7000000000e+00 0.0000e+00 1.0000e+00
</event>
<event>
10      1 +4.6527485e-10 2.40000000e+02 7.81860800e-03 1.03012300e-01
      -11 -1    0    0    0    0 +0.0000000000e+00 +0.0000000000e+00 +1.2000000000e+02 1.2000000000e+02 0.0000000000e+00 0.0000e+00 1.0000e+00
       11 -1    0    0    0    0 -0.0000000000e+00 -0.0000000000e+00 -1.2000000000e+02 1.2000000000e+02 0.0000000000e+00 0.0000e+00 -1.0000e+00
       23  2    1    2    0    0 -4.6510697174e+01 +2.0130617340e+01 -1.0017119716e+01 1.0474820991e+02 9.1122763814e+01 0.0000e+00 0.0000e+00
       25  2    1    2    0    0 +4.6510697174e+01 -2.0130617340e+01 +1.0017119716e+01 1.3525179009e+02 1.2499686928e+02 0.0000e+00 0.0000e+00
      -11  1    3    3    0    0 -7.3723067840e+00 -3.4839970120e+01 -1.0965079776e+01 3.7261339211e+01 0.0000000000e+00 0.0000e+00 -1.0000e+00
       11  1    3    3    0    0 -3.9138390390e+01 +5.4970587460e+01 +9.4796006006e-01 6.7486870695e+01 0.0000000000e+00 0.0000e+00 1.0000e+00
        5  1    4    4  501    0 +2.4681389386e+00 +4.1358021429e+00 +5.2244036612e+00 8.5194461557e+00 4.7000000000e+00 0.0000e+00 1.0000e+00
       -5  1    4    4    0  502 +1.8277930859e+01 -1.5093995142e+01 -3.1160678150e+01 3.9433352743e+01 4.7000000000e+00 0.0000e+00 1.0000e+00
        5  1    4    4  502    0 +1.6739491406e+01 -2.5318062452e+01 -1.4052228102e+01 3.3775286431e+01 4.7000000000e+00 0.0000e+00 1.0000e+00
       -5  1    4    4    0  501 +9.0251359711e+00 +1.6145638112e+01 +5.0005622307e+01 5.3523704764e+01 4.7000000000e+00 0.0000e+00 1.0000e+00
</event>
<event>
10      1 +4.6527485e-10 2.40000000e+02 7.81860800e-03 1.03012300e-01
      -11 -1    0    0    0    0 +0.0000000000e+00 +0.0000000000e+00 +1.2000000000e+02 1.2000000000e+02 0.0000000000e+00 0.0000e+00 -1.0000e+00
       11 -1    0    0    0    0 -0.0000000000e+00 -0.0000000000e+00 -1.2000000000e+02 1.2000000000e+02 0.0000000000e+00 0.0000e+00 1.0000e+00
       23  2    1    2    0    0 +3.7090321857e+01 -3.4687582284e+01 +1.9395093684e+01 1.0369076757e+02 8.8298840762e+01 0.0000e+00 0.0000e+00
       25  2    1    2    0    0 -3.7090321857e+01 +3.4687582284e+01 -1.9395093684e+01 1.3630923243e+02 1.2500046739e+02 0.0000e+00 0.0000e+00
      -13  1    3    3    0    0 +2.0337329035e+01 +1.9201064086e+01 +3.5320916995e+01 4.5053912057e+01 0.0000000000e+00 0.0000e+00 -1.0000e+00
       13  1    3    3    0    0 +1.6752992823e+01 -5.3888646370e+01 -1.5925823311e+01 5.8636855512e+01 0.0000000000e+00 0.0000e+00 1.0000e+00
        5  1    4    4  501    0 +7.4828591729e+00 +5.1287750675e+00 +1.1039939786e+01 1.5042200157e+01 4.7000000000e+00 0.0000e+00 -1.0000e+00
       -5  1    4    4    0  502 -6.9881423120e+00 +2.7225886806e+01 -2.4009762788e+01 3.7264483821e+01 4.7000000000e+00 0.0000e+00 1.0000e+00
        5  1    4    4  502    0 -5.0743191219e+01 -2.2035353509e+01 -6.6065155252e+00 5.5912112344e+01 4.7000000000e+00 0.0000e+00 1.0000e+00
       -5  1    4    4    0  501 +1.3158152501e+01 +2.4368273920e+01 +1.8124484383e-01 2.8090436109e+01 4.7000000000e+00 0.0000e+00 -1.0000e+00
</event>
<event>
10      1 +4.6527485e-10 2.40000000e+02 7.81860800e-03 1.03012300e-01
      -11 -1    0    0    0    0 +0.0000000000e+00 +0.0000000000e+00 +1.2000000000e+02 1.2000000000e+02 0.0000000000e+00 0.0000e+00 1.0000e+00
       11 -1    0    0    0    0 -0.0000000000e+00 -0.0000000000e+00 -1.2000000000e+02 1.2000000000e+02 0.0000000000e+00 0.0000e+00 -1.0000e+00
       23  2    1    2    0    0 +3.9123598798e+01 +2.5317274916e+01 -2.1066100874e+01 1.0496028844e+02 9.1658393788e+01 0.0000e+00 0.0000e+00
       25  2    1    2    0    0 -3.9123598798e+01 -2.5317274916e+01 +2.1066100874e+01 1.3503971156e+02 1.2498128940e+02 0.0000e+00 0.0000e+00
      -13  1    3    3    0    0 +3.7665627157e+01 -5.3796758022e+00 +2.7877948271e+01 4.7168001661e+01 0.0000000000e+00 0.0000e+00 1.0000e+00
       13  1    3    3    0    0 +1.4579716408e+00 +3.0696950718e+01 -4.8944049145e+01 5.7792286781e+01 0.0000000000e+00 0.0000e+00 -1.0000e+00
        5  1    4    4  501    0 -2.7268501676e+00 +5.2434042020e+00 +3.4346916026e+00 8.2955473518e+00 4.7000000000e+00 0.0000e+00 1.0000e+00
       -5  1    4    4    0  502 -1.5173157298e+00 -2.5384283578e+01 +2.8705043560e+01 3.8635911087e+01 4.7000000000e+00 0.0000e+00 -1.0000e+00
        5  1    4    4  502    0 +5.4370647941e+00 -3.1696898586e+01 +1.1696648062e+01 3.4542099378e+01 4.7000000000e+00 0.0000e+00 -1.0000e+00
       -5  1    4    4    0  501 -4.0316497695e+01 +2.6520503046e+01 -2.2770282351e+01 5.3566153740e+01 4.7000000000e+00 0.0000e+00 -1.0000e+00
</event>
<event>
10      1 +4.6527485e-10 2.40000000e+02 7.81860800e-03 1.03012300e-01
      -11 -1    0    0    0    0 +0.0000000000e+00 +0.0000000000e+00 +1.2000000000e+02 1.2000000000e+02 0.0000000000e+00 0.0000e+00 -1.0000e+00
       11 -1    0    0    0    0 -0.0000000000e+00 -0.0000000000e+00 -1.2000000000e+02 1.2000000000e+02 0.0000000000e+00 0.0000e+00 1.0000e+00
       23  2    1    2    0    0 +3.6246125583e+01 -2.1209161744e+01 -7.8595692301e+00 1.0790062374e+02 9.9081590685e+01 0.0000e+00 0.0000e+00
       25  2    1    2    0    0 -3.6246125583e+01 +2.1209161744e+01 +7.8595692301e+00 1.3209937626e+02 1.2499944887e+02 0.0000e+00 0.0000e+00
      -13  1    3    3    0    0 -7.8686190618e+00 +1.2204322734e+01 -4.0931570344e+01 4.3431027045e+01 0.0000000000e+00 0.0000e+00 1.0000e+00
       13  1    3    3    0    0 +4.4114744644e+01 -3.3413484478e+01 +3.3072001114e+01 6.4469596692e+01 0.0000000000e+00 0.0000e+00 -1.0000e+00
        5  1    4    4  501    0 +4.0892500871e-01 -3.9664702334e-01 -3.1508339533e+01 3.1862046524e+01 4.7000000000e+00 0.0000e+00 -1.0000e+00
       -5  1    4    4    0  502 -2.6648376185e+00 -1.7024462399e+00 +6.5677034918e+00 8.6732007868e+00 4.7000000000e+00 0.0000e+00 1.0000e+00
        5  1    4    4  502    0 -2.3405741014e+01 +3.7815303203e+01 +4.9418712308e+01 6.6649268525e+01 4.7000000000e+00 0.0000e+00 1.0000e+00
       -5  1    4    4    0  501 -1.0584471958e+01 -1.4507048196e+01 -1.6618507037e+01 2.4914860427e+01 4.7000000000e+00 0.0000e+00 -1.0000e+00
</event>
<event>
10      1 +4.6527485e-10 2.40000000e+02 7.81860800e-03 1.03012300e-01
      -11 -1    0    0    0    0 +0.0000000000e+00 +0.0000000000e+00 +1.2000000000e+02 1.2000000000e+02 0.0000000000e+00 0.0000e+00 -1.0000e+00
       11 -1    0    0    0    0 -0.0000000000e+00 -0.0000000000e+00 -1.2000000000e+02 1.2000000000e+02 0.0000000000e+00 0.0000e+00 1.0000e+00
       23  2    1    2    0    0 -7.7655857659e+00 +1.3201468674e+01 +3.3278198072e+01 1.0973933909e+02 1.0344419258e+02 0.0000e+00 0.0000e+00
       25  2    1    2    0    0 +7.7655857659e+00 -1.3201468674e+01 -3.3278198072e+01 1.3026066091e+02 1.2500327282e+02 0.0000e+00 0.0000e+00
      -13  1    3    3    0    0 -2.9595304080e+01 +1.6851976462e+01 -2.8315105767e+01 4.4290138280e+01 0.0000000000e+00 0.0000e+00 1.0000e+00
       13  1    3    3    0    0 +2.1829718314e+01 -3.6505077886e+00 +6.1593303839e+01 6.5449200810e+01 0.0000000000e+00 0.0000e+00 -1.0000e+00
        5  1    4    4  501    0 -3.0785218024e+01 +1.8257638892e+01 +2.1372674110e+01 4.1951784531e+01 4.7000000000e+00 0.0000e+00 -1.0000e+00
       -5  1    4    4    0  502 -3.3125106652e+00 -4.0931354585e+00 -3.2358949931e+00 7.7645026367e+00 4.7000000000e+00 0.0000e+00 -1.0000e+00
        5  1    4    4  502    0 +4.7107702570e+01 -2.6281459784e+01 -4.8982701082e+01 7.3015380401e+01 4.7000000000e+00 0.0000e+00 -1.0000e+00
       -5  1    4    4    0  501 -5.2443881149e+00 -1.0845123226e+00 -2.4322761070e+00 7.5289933416e+00 4.7000000000e+00 0.0000e+00 -1.0000e+00
</event>
<event>
10      1 +4.6527485e-10 2.40000000e+02 7.81860800e-03 1.03012300e-01
      -11 -1    0    0    0    0 +0.0000000000e+00 +0.0000000000e+00 +1.2000000000e+02 1.2000000000e+02 0.0000000000e+00 0.0000e+00 1.0000e+00
       11 -1    0    0    0    0 -0.0000000000e+00 -0.0000000000e+00 -1.2000000000e+02 1.2000000000e+02 0.0000000000e+00 0.0000e+00 -1.0000e+00
       23  2    1    2    0    0 +2.9815582166e+01 +4.2572494048e+01 -2.2694734843e+00 1.0460462288e+02 9.0750153880e+01 0.0000e+00 0.0000e+00
       25  2    1    2    0    0 -2.9815582166e+01 -4.2572494048e+01 +2.2694734843e+00 1.3539537712e+02 1.2500148577e+02 0.0000e+00 0.0000e+00
      -11  1    3    3    0    0 +6.1189564502e+01 +2.4263464331e+01 +9.3063304762e+00 6.6479216995e+01 0.0000000000e+00 0.0000e+00 -1.0000e+00
       11  1    3    3    0    0 -3.1373982336e+01 +1.8309029717e+01 -1.1575803961e+01 3.8125405888e+01 0.0000000000e+00 0.0000e+00 1.0000e+00
        5  1    4    4  501    0 -1.7906971461e+01 +2.8133442684e+01 +2.3788727254e+01 4.1232799669e+01 4.7000000000e+00 0.0000e+00 -1.0000e+00
       -5  1    4    4    0  501 +3.6608614537e+00 +6.9526148307e+00 +1.5018176332e+00 9.2782657739e+00 4.7000000000e+00 0.0000e+00 -1.0000e+00
        5  1    4    4  502    0 -1.0010215709e+01 -3.5674701053e+01 -2.0827223262e+00 3.7407438379e+01 4.7000000000e+00 0.0000e+00 -1.0000e+00
       -5  1    4    4    0  502 -5.5592564493e+00 -4.1983850509e+01 -2.0938349077e+01 4.7476873295e+01 4.7000000000e+00 0.0000e+00 -1.0000e+00
</event>
<event>
10      1 +4.6527485e-10 2.40000000e+02 7.81860800e-03 1.03012300e-01
      -11 -1    0    0    0    0 +0.0000000000e+00 +0.0000000000e+00 +1.2000000000e+02 1.2000000000e+02 0.0000000000e+00 0.0000e+00 1.0000e+00
       11 -1    0    0    0    0 -0.0000000000e+00 -0.0000000000e+00 -1.2000000000e+02 1.2000000000e+02 0.0000000000e+00 0.0000e+00 -1.0000e+00
       23  2    1    2    0    0 -8.3318882518e+00 -3.0557809756e+01 +4.5965419386e+01 1.0310117512e+02 8.6682365184e+01 0.0000e+00 0.0000e+00
       25  2    1    2    0    0 +8.3318882518e+00 +3.0557809756e+01 -4.5965419386e+01 1.3689882488e+02 1.2500107349e+02 0.0000e+00 0.0000e+00
      -13  1    3    3    0    0 -3.1413230683e+01 +1.8611835521e+01 +2.7572173760e+01 4.5753865949e+01 0.0000000000e+00 0.0000e+00 1.0000e+00
       13  1    3    3    0    0 +2.3081342431e+01 -4.9169645277e+01 +1.8393245626e+01 5.7347309176e+01 0.0000000000e+00 0.0000e+00 -1.0000e+00
        5  1    4    4  501    0 -1.5019655600e+01 +2.0221686722e+01 -3.7548399700e+01 4.5458541423e+01 4.7000000000e+00 0.0000e+00 -1.0000e+00
       -5  1    4    4    0  501 -1.8623703030e+01 +2.8157412837e+01 -1.8859666172e+01 3.8954578939e+01 4.7000000000e+00 0.0000e+00 -1.0000e+00
        5  1    4    4  502    0 +1.2389187906e+01 -1.6535996199e+01 +6.9377799723e+00 2.2296949078e+01 4.7000000000e+00 0.0000e+00 1.0000e+00
       -5  1    4    4    0  502 +2.9586058977e+01 -1.2852936035e+00 +3.5048665133e+00 3.0188755435e+01 4.7000000000e+00 0.0000e+00 1.0000e+00
</event>
<event>
10      1 +4.6527485e-10 2.40000000e+02 7.81860800e-03 1.03012300e-01
      -11 -1    0    0    0    0 +0.0000000000e+00 +0.0000000000e+00 +1.2000000000e+02 1.2000000000e+02 0.0000000000e+00 0.0000e+00 -1.0000e+00
       11 -1    0    0    0    0 -0.0000000000e+00 -0.0000000000e+00 -1.2000000000e+02 1.2000000000e+02 0.0000000000e+00 0.0000e+00 1.0000e+00
       23  2    1    2    0    0 +6.6557147103e+00 +2.0078667524e-01 -5.2879670951e+01 1.0411190429e+02 8.9435396585e+01 0.0000e+00 0.0000e+00
       25  2    1    2    0    0 -6.6557147103e+00 -2.0078667524e-01 +5.2879670951e+01 1.3588809571e+02 1.2499990440e+02 0.0000e+00 0.0000e+00
      -11  1    3    3    0    0 -4.1145348565e+00 +2.1800457945e+00 -7.7252157983e+01 7.7392363382e+01 0.0000000000e+00 0.0000e+00 1.0000e+00
       11  1    3    3    0    0 +1.0770249567e+01 -1.9792591192e+00 +2.4372487033e+01 2.6719540912e+01 0.0000000000e+00 0.0000e+00 -1.0000e+00
        5  1    4    4  501    0 +4.4656950672e+01 -1.0263074795e+01 +2.6905017089e+01 5.3343639660e+01 4.7000000000e+00 0.0000e+00 1.0000e+00
       -5  1    4    4    0  501 +7.1410984328e+00 -1.4552638024e+00 +1.6622615095e+01 1.8748717614e+01 4.7000000000e+00 0.0000e+00 1.0000e+00
        5  1    4    4  502    0 -4.7604760072e+01 +3.1934616821e+00 +1.1157281112e+01 4.9223838745e+01 4.7000000000e+00 0.0000e+00 1.0000e+00
       -5  1    4    4    0  502 -1.0849003744e+01 +8.3240902402e+00 -1.8052423458e+00 1.4571899687e+01 4.7000000000e+00 0.0000e+00 1.0000e+00
</event>
<event>
10      1 +4.6527485e-10 2.40000000e+02 7.81860800e-03 1.03012300e-01
      -11 -1    0    0    0    0 +0.0000000000e+00 +0.0000000000e+00 +1.2000000000e+02 1.2000000000e+02 0.0000000000e+00 0.0000e+00 -1.0000e+00
       11 -1    0    0    0    0 -0.0000000000e+00 -0.0000000000e+00 -1.2000000000e+02 1.2000000000e+02 0.0000000000e+00 0.0000e+00 1.0000e+00
       23  2    1    2    0    0 -2.9802244701e+01 -4.0072296055e+00 -5.7591508098e+00 1.1130591000e+02 1.0701217737e+02 0.0000e+00 0.0000e+00
       25  2    1    2    0    0 +2.9802244701e+01 +4.0072296055e+00 +5.7591508098e+00 1.2869409000e+02 1.2499907721e+02 0.0000e+00 0.0000e+00
      -13  1    3    3    0    0 -6.4429732114e+01 -9.4683049982e+00 +1.9636878304e+01 6.8017984161e+01 0.0000000000e+00 0.0000e+00 1.0000e+00
       13  1    3    3    0    0 +3.4627487413e+01 +5.4610753927e+00 -2.5396029114e+01 4.3287925842e+01 0.0000000000e+00 0.0000e+00 -1.0000e+00
        5  1    4    4  501    0 +3.9874879117e+00 +4.1814371330e+00 -2.2026290872e+01 2.3251493842e+01 4.7000000000e+00 0.0000e+00 1.0000e+00
       -5  1    4    4    0  501 +2.6053484311e+01 +4.2015204729e+01 -2.6649304085e+00 4.9731814035e+01 4.7000000000e+00 0.0000e+00 1.0000e+00
        5  1    4    4  502    0 +7.0753297368e+00 -3.2513084410e+01 +2.0906882085e+01 3.9577123029e+01 4.7000000000e+00 0.0000e+00 -1.0000e+00
       -5  1    4    4    0  502 -7.3140572584e+00 -9.6763278461e+00 +9.5434900051e+00 1.6133659090e+01 4.7000000000e+00 0.0000e+00 -1.0000e+00
</event>
<event>
10      1 +4.6527485e-10 2.40000000e+02 7.81860800e-03 1.03012300e-01
      -11 -1    0    0    0    0 +0.0000000000e+00 +0.0000000000e+00 +1.2000000000e+02 1.2000000000e+02 0.0000000000e+00 0.0000e+00 -1.0000e+00
       11 -1    0    0    0    0 -0.0000000000e+00 -0.0000000000e+00 -1.2000000000e+02 1.2000000000e+02 0.0000000000e+00 0.0000e+00 1.0000e+00
       23  2    1    2    0    0 +4.7595745049e+01 -2.8009772510e+01 +1.3332304986e+00 1.0333893022e+02 8.7334155366e+01 0.0000e+00 0.0000e+00
       25  2    1    2    0    0 -4.7595745049e+01 +2.8009772510e+01 -1.3332304986e+00 1.3666106978e+02 1.2499827273e+02 0.0000e+00 0.0000e+00
      -13  1    3    3    0    0 +3.6242375245e+01 -5.1669482804e+01 +2.5112115215e+01 6.7925426367e+01 0.0000000000e+00 0.0000e+00 -1.0000e+00
       13  1    3    3    0    0 +1.1353369804e+01 +2.3659710294e+01 -2.3778884716e+01 3.5413503857e+01 0.0000000000e+00 0.0000e+00 1.0000e+00
        5  1    4    4  501    0 -9.2436149848e+00 +8.5620817762e+00 +7.2523095677e+00 1.5278732159e+01 4.7000000000e+00 0.0000e+00 1.0000e+00
       -5  1    4    4    0  501 -4.5584788380e+01 +3.4793182196e+01 -4.5615307641e+01 7.3426049534e+01 4.7000000000e+00 0.0000e+00 1.0000e+00
        5  1    4    4  502    0 +3.3442893308e+00 -4.3290779710e+00 +3.4327717722e+01 3.5077163386e+01 4.7000000000e+00 0.0000e+00 1.0000e+00
       -5  1    4    4    0  502 +3.8883689850e+00 -1.1016413491e+01 +2.7020498527e+00 1.2879124697e+01 4.7000000000e+00 0.0000e+00 1.0000e+00
</event>
<event>
10      1 +4.6527485e-10 2.40000000e+02 7.81860800e-03 1.03012300e-01
      -11 -1    0    0    0    0 +0.0000000000e+00 +0.0000000000e+00 +1.2000000000e+02 1.2000000000e+02 0.0000000000e+00 0.0000e+00 1.0000e+00
       11 -1    0    0    0    0 -0.0000000000e+00 -0.0000000000e+00 -1.2000000000e+02 1.2000000000e+02 0.0000000000e+00 0.0000e+00 -1.0000e+00
       23  2    1    2    0    0 +2.0646695804e+01 +3.2668613073e+01 +4.1455291755e+01 1.0275164239e+02 8.5707843700e+01 0.0000e+00 0.0000e+00
       25  2    1    2    0    0 -2.0646695804e+01 -3.2668613073e+01 -4.1455291755e+01 1.3724835761e+02 1.2500018450e+02 0.0000e+00 0.0000e+00
      -13  1    3    3    0    0 +5.0435651991e+01 +3.6000132609e+01 +3.7724052633e+01 7.2545631755e+01 0.0000000000e+00 0.0000e+00 1.0000e+00
       13  1    3    3    0    0 -2.9788956187e+01 -3.3315195354e+00 +3.7312391222e+00 3.0206010636e+01 0.0000000000e+00 0.0000e+00 -1.0000e+00
        5  1    4    4  501    0 +1.5742809835e+01 -4.3931594850e+01 +9.8932151355e+00 4.7935235404e+01 4.7000000000e+00 0.0000e+00 1.0000e+00
       -5  1    4    4    0  502 -1.0541809998e+01 +1.7757418358e+01 -2.0901172929e+01 2.9755750613e+01 4.7000000000e+00 0.0000e+00 -1.0000e+00
        5  1    4    4  502    0 -3.1086818093e+01 +1.0186022818e+01 -1.8646747672e+01 3.7946495473e+01 4.7000000000e+00 0.0000e+00 -1.0000e+00
       -5  1    4    4    0  501 +5.2391224515e+00 -1.6680459399e+01 -1.1800586290e+01 2.1610876119e+01 4.7000000000e+00 0.0000e+00 1.0000e+00
</event>
<event>
10      1 +4.6527485e-10 2.40000000e+02 7.81860800e-03 1.03012300e-01
      -11 -1    0    0    0    0 +0.0000000000e+00 +0.0000000000e+00 +1.2000000000e+02 1.2000000000e+02 0.0000000000e+00 0.0000e+00 1.0000e+00
       11 -1    0    0    0    0 -0.0000000000e+00 -0.0000000000e+00 -1.2000000000e+02 1.2000000000e+02 0.0000000000e+00 0.0000e+00 -1.0000e+00
       23  2    1    2    0    0 -4.0763211171e+01 +2.5336276225e+01 +1.4575763454e+01 1.0531171194e+02 9.2598798658e+01 0.0000e+00 0.0000e+00
       25  2    1    2    0    0 +4.0763211171e+01 -2.5336276225e+01 -1.4575763454e+01 1.3468828806e+02 1.2499966313e+02 0.0000e+00 0.0000e+00
      -11  1    3    3    0    0 -3.9124255607e+01 +5.8767626158e+01 +1.3119746641e+01 7.1808558076e+01 0.0000000000e+00 0.0000e+00 1.0000e+00
       11  1    3    3    0    0 -1.6389555640e+00 -3.3431349933e+01 +1.4560168136e+00 3.3503153861e+01 0.0000000000e+00 0.0000e+00 -1.0000e+00
        5  1    4    4  501    0 +2.0948745917e+00 +2.5540171608e+00 +2.6109021947e+00 6.3101753924e+00 4.7000000000e+00 0.0000e+00 -1.0000e+00
       -5  1    4    4    0  501 -6.4836785816e+00 +4.0181315799e+01 -1.7773122792e+01 4.4660386486e+01 4.7000000000e+00 0.0000e+00 -1.0000e+00
        5  1    4    4  502    0 +3.0774511646e+01 -5.2006543090e+01 -5.4063334788e+00 6.0852851477e+01 4.7000000000e+00 0.0000e+00 -1.0000e+00
       -5  1    4    4    0  502 +1.4377503515e+01 -1.6065066095e+01 +5.9927906223e+00 2.2864874708e+01 4.7000000000e+00 0.0000e+00 -1.0000e+00
</event>
<event>
10      1 +4.6527485e-10 2.40000000e+02 7.81860800e-03 1.03012300e-01
      -11 -1    0    0    0    0 +0.0000000000e+00 +0.0000000000e+00 +1.2000000000e+02 1.2000000000e+02 0.0000000000e+00 0.0000e+00 -1.0000e+00
       11 -1    0    0    0    0 -0.0000000000e+00 -0.0000000000e+00 -1.2000000000e+02 1.2000000000e+02 0.0000000000e+00 0.0000e+00 1.0000e+00
       23  2    1    2    0    0 +3.5028608114e+01 -3.2921832311e+01 +1.8425792919e+01 1.0481287879e+02 9.1298298376e+01 0.0000e+00 0.0000e+00
       25  2    1    2    0    0 -3.5028608114e+01 +3.2921832311e+01 -1.8425792919e+01 1.3518712121e+02 1.2500078987e+02 0.0000e+00 0.0000e+00
      -13  1    3    3    0    0 +2.3601644420e+01 +9.7866120933e-01 +5.1142324067e+01 5.6334116733e+01 0.0000000000e+00 0.0000e+00 -1.0000e+00
       13  1    3    3    0    0 +1.1426963694e+01 -3.3900493521e+01 -3.2716531148e+01 4.8478762057e+01 0.0000000000e+00 0.0000e+00 1.0000e+00
        5  1    4    4  501    0 +1.3322997466e+01 -1.9117009455e+01 +1.4956823422e+01 2.8084851413e+01 4.7000000000e+00 0.0000e+00 -1.0000e+00
       -5  1    4    4    0  501 -9.4352478683e+00 -1.3095699781e+01 +3.4980867847e+00 1.7171134681e+01 4.7000000000e+00 0.0000e+00 -1.0000e+00
        5  1    4    4  502    0 -1.4970083543e+01 +1.9498276082e+01 +2.1381640921e+00 2.5118676660e+01 4.7000000000e+00 0.0000e+00 1.0000e+00
       -5  1    4    4    0  502 -2.3946274168e+01 +4.5636265465e+01 -3.9018867218e+01 6.4812458456e+01 4.7000000000e+00 0.0000e+00 1.0000e+00
</event>
<event>
10      1 +4.6527485e-10 2.40000000e+02 7.81860800e-03 1.03012300e-01
      -11 -1    0    0    0    0 +0.0000000000e+00 +0.0000000000e+00 +1.2000000000e+02 1.2000000000e+02 0.0000000000e+00 0.0000e+00 1.0000e+00
       11 -1    0    0    0    0 -0.0000000000e+00 -0.0000000000e+00 -1.2000000000e+02 1.2000000000e+02 0.0000000000e+00 0.0000e+00 -1.0000e+00
       23  2    1    2    0    0 -4.9636194277e+01 -9.2580346638e+00 -1.7120811589e+01 1.0410391123e+02 8.9414982838e+01 0.0000e+00 0.0000e+00
       25  2    1    2    0    0 +4.9636194277e+01 +9.2580346638e+00 +1.7120811589e+01 1.3589608877e+02 1.2500064706e+02 0.0000e+00 0.0000e+00
      -11  1    3    3    0    0 -3.6462805629e+01 +8.9755307103e+00 -5.1063308963e+01 6.3384208349e+01 0.0000000000e+00 0.0000e+00 -1.0000e+00
       11  1    3    3    0    0 -1.3173388648e+01 -1.8233565374e+01 +3.3942497374e+01 4.0719702881e+01 0.0000000000e+00 0.0000e+00 1.0000e+00
        5  1    4    4  501    0 -2.9300719218e+00 +5.9223314120e+00 -2.3321544315e+00 8.4373144491e+00 4.7000000000e+00 0.0000e+00 1.0000e+00
       -5  1    4    4    0  501 +1.3954968807e+00 +6.2993518859e+00 +5.7797100126e+01 5.8345728453e+01 4.7000000000e+00 0.0000e+00 -1.0000e+00
        5  1    4    4  502    0 +3.9071950251e+01 +2.1175784858e+00 -3.8609918459e+01 5.5171706866e+01 4.7000000000e+00 0.0000e+00 -1.0000e+00
       -5  1    4    4    0  502 +1.2098819067e+01 -5.0812271199e+00 +2.6578435425e-01 1.3941339003e+01 4.7000000000e+00 0.0000e+00 1.0000e+00
</event>
<event>
10      1 +4.6527485e-10 2.40000000e+02 7.81860800e-03 1.03012300e-01
      -11 -1    0    0    0    0 +0.0000000000e+00 +0.0000000000e+00 +1.2000000000e+02 1.2000000000e+02 0.0000000000e+00 0.0000e+00 -1.0000e+00
       11 -1    0    0    0    0 -0.0000000000e+00 -0.0000000000e+00 -1.2000000000e+02 1.2000000000e+02 0.0000000000e+00 0.0000e+00 1.0000e+00
       23  2    1    2    0    0 -4.8477483025e+01 +1.2689628874e+01 +1.5732487988e+01 1.0441244777e+02 9.0240539837e+01 0.0000e+00 0.0000e+00
       25  2    1    2    0    0 +4.8477483025e+01 -1.2689628874e+01 -1.5732487988e+01 1.3558755223e+02 1.2500152039e+02 0.0000e+00 0.0000e+00
      -11  1    3    3    0    0 -3.4770631967e+01 +2.9890733989e+01 -2.9217309268e+01 5.4370065170e+01 0.0000000000e+00 0.0000e+00 1.0000e+00
       11  1    3    3    0    0 -1.3706851058e+01 -1.7201105115e+01 +4.4949797256e+01 5.0042382602e+01 0.0000000000e+00 0.0000e+00 -1.0000e+00
        5  1    4    4  501    0 +5.1559091490e+01 -2.6736728871e-01 +1.4640720619e+01 5.3803829797e+01 4.7000000000e+00 0.0000e+00 -1.0000e+00
       -5  1    4    4    0  501 +1.7027837807e+01 +1.0967661026e+01 +9.5955804116e+00 2.2899825593e+01 4.7000000000e+00 0.0000e+00 -1.0000e+00
        5  1    4    4  502    0 -3.6807711457e+00 -2.3532351456e+01 -3.1619774422e+01 3.9865019450e+01 4.7000000000e+00 0.0000e+00 -1.0000e+00
       -5  1    4    4    0  502 -1.6428675126e+01 +1.4242884541e-01 -8.3490145974e+00 1.9018877389e+01 4.7000000000e+00 0.0000e+00 -1.0000e+00
</event>
<event>
10      1 +4.6527485e-10 2.40000000e+02 7.81860800e-03 1.03012300e-01
      -11 -1    0    0    0    0 +0.0000000000e+00 +0.0000000000e+00 +1.2000000000e+02 1.2000000000e+02 0.0000000000e+00 0.0000e+00 1.0000e+00
       11 -1    0    0    0    0 -0.0000000000e+00 -0.0000000000e+00 -1.2000000000e+02 1.2000000000e+02 0.0000000000e+00 0.0000e+00 -1.0000e+00
       23  2    1    2    0    0 +1.2215180490e+01 -2.5101570802e+00 -4.9552585655e+01 1.0495978266e+02 9.1681981371e+01 0.0000e+00 0.0000e+00
       25  2    1    2    0    0 -1.2215180490e+01 +2.5101570802e+00 +4.9552585655e+01 1.3504021734e+02 1.2499956012e+02 0.0000e+00 0.0000e+00
      -13  1    3    3    0    0 -3.0873043954e+01 -1.5338030388e+01 +4.3759863684e+00 3.4749809724e+01 0.0000000000e+00 0.0000e+00 1.0000e+00
       13  1    3    3    0    0 +4.3088224443e+01 +1.2827873307e+01 -5.3928572023e+01 7.0209972936e+01 0.0000000000e+00 0.0000e+00 -1.0000e+00
        5  1    4    4  501    0 -2.1708671231e+01 -6.9682851280e+00 +3.4787504847e+01 4.1857901258e+01 4.7000000000e+00 0.0000e+00 -1.0000e+00
       -5  1    4    4    0  501 -1.3429247114e+01 -2.6652673653e+01 +2.8787996431e+01 4.1731863479e+01 4.7000000000e+00 0.0000e+00 -1.0000e+00
        5  1    4    4  502    0 +2.3676632445e+01 +2.3888657934e+01 -2.6297886890e+00 3.4062540868e+01 4.7000000000e+00 0.0000e+00 1.0000e+00
       -5  1    4    4    0  502 -7.5389458944e-01 +1.2242457927e+01 -1.1393126934e+01 1.7387911735e+01 4.7000000000e+00 0.0000e+00 1.0000e+00
</event>
<event>
10      1 +4.6527485e-10 2.40000000e+02 7.81860800e-03 1.03012300e-01
      -11 -1    0    0    0    0 +0.0000000000e+00 +0.0000000000e+00 +1.2000000000e+02 1.2000000000e+02 0.0000000000e+00 0.0000e+00 -1.0000e+00
       11 -1    0    0    0    0 -0.0000000000e+00 -0.0000000000e+00 -1.2000000000e+02 1.2000000000e+02 0.0000000000e+00 0.0000e+00 1.0000e+00
       23  2    1    2    0    0 +4.3482465979e+01 -9.1756173256e+00 +2.5037173995e+01 1.0499186539e+02 9.1768812324e+01 0.0000e+00 0.0000e+00
       25  2    1    2    0    0 -4.3482465979e+01 +9.1756173256e+00 -2.5037173995e+01 1.3500813461e+02 1.2500167810e+02 0.0000e+00 0.0000e+00
      -13  1    3    3    0    0 -9.6533705605e+00 -3.8929532549e+01 +1.7007890388e+01 4.3565633281e+01 0.0000000000e+00 0.0000e+00 -1.0000e+00
       13  1    3    3    0    0 +5.3135836539e+01 +2.9753915224e+01 +8.0292836074e+00 6.1426232109e+01 0.0000000000e+00 0.0000e+00 1.0000e+00
        5  1    4    4  501    0 +1.2526378509e+01 -1.1392249422e+00 +3.2817197572e+01 3.5457953247e+01 4.7000000000e+00 0.0000e+00 1.0000e+00
       -5  1    4    4    0  501 -5.7517632951e+01 +1.8828998157e+01 -3.2344363484e+01 6.8782680386e+01 4.7000000000e+00 0.0000e+00 -1.0000e+00
        5  1    4    4  502    0 -8.9000579683e-01 +2.1497727621e+00 -9.0088089293e+00 1.0424119703e+01 4.7000000000e+00 0.0000e+00 -1.0000e+00
       -5  1    4    4    0  502 +2.3987942607e+00 -1.0663928651e+01 -1.6501199154e+01 2.0343381275e+01 4.7000000000e+00 0.0000e+00 1.0000e+00
</event>
<event>
10      1 +4.6527485e-10 2.40000000e+02 7.81860800e-03 1.03012300e-01
      -11 -1    0    0    0    0 +0.0000000000e+00 +0.0000000000e+00 +1.2000000000e+02 1.2000000000e+02 0.0000000000e+00 0.0000e+00 1.0000e+00
       11 -1    0    0    0    0 -0.0000000000e+00 -0.0000000000e+00 -1.2000000000e+02 1.2000000000e+02 0.0000000000e+00 0.0000e+00 -1.0000e+00
       23  2    1    2    0    0 +4.3582952567e+01 -5.8960027613e-01 +3.3657585162e+01 1.0340809065e+02 8.7524732453e+01 0.0000e+00 0.0000e+00
       25  2    1    2    0    0 -4.3582952567e+01 +5.8960027613e-01 -3.3657585162e+01 1.3659190935e+02 1.2499878110e+02 0.0000e+00 0.0000e+00
      -13  1    3    3    0    0 -5.8096952305e-02 -1.5006040983e+01 +5.1850082379e+01 5.3977918484e+01 0.0000000000e+00 0.0000e+00 1.0000e+00
       13  1    3    3    0    0 +4.3641049519e+01 +1.4416440707e+01 -1.8192497216e+01 4.9430172170e+01 0.0000000000e+00 0.0000e+00 -1.0000e+00
        5  1    4    4  501    0 -4.7670093955e+00 -3.6984612202e-01 -7.5306111592e+00 1.0082721317e+01 4.7000000000e+00 0.0000e+00 -1.0000e+00
       -5  1    4    4    0  501 -5.6869164165e+01 +3.1664303367e+01 -4.7074972308e+01 8.0466595295e+01 4.7000000000e+00 0.0000e+00 1.0000e+00
        5  1    4    4  502    0 +1.2925273802e+01 -2.5225678310e+01 +2.3173933882e+01 3.6912311775e+01 4.7000000000e+00 0.0000e+00 1.0000e+00
       -5  1    4    4    0  502 +5.1279471916e+00 -5.4791786589e+00 -2.2259355770e+00 9.1302809579e+00 4.7000000000e+00 0.0000e+00 1.0000e+00
</event>
<event>
10      1 +4.6527485e-10 2.40000000e+02 7.81860800e-03 1.03012300e-01
      -11 -1    0    0    0    0 +0.0000000000e+00 +0.0000000000e+00 +1.2000000000e+02 1.2000000000e+02 0.0000000000e+00 0.0000e+00 -1.0000e+00
       11 -1    0    0    0    0 -0.0000000000e+00 -0.0000000000e+00 -1.2000000000e+02 1.2000000000e+02 0.0000000000e+00 0.0000e+00 1.0000e+00
       23  2    1    2    0    0 -2.7813246908e+01 -3.3122630594e+01 -2.5945893950e+01 1.0521019972e+02 9.2332612609e+01 0.0000e+00 0.0000e+00
       25  2    1    2    0    0 +2.7813246908e+01 +3.3122630594e+01 +2.5945893950e+01 1.3478980028e+02 1.2499766192e+02 0.0000e+00 0.0000e+00
      -13  1    3    3    0    0 -4.5726132284e+01 -3.0279289056e+01 -5.0589073013e+01 7.4612122526e+01 0.0000000000e+00 0.0000e+00 1.0000e+00
       13  1    3    3    0    0 +1.7912885377e+01 -2.8433415375e+00 +2.4643179063e+01 3.0598077194e+01 0.0000000000e+00 0.0000e+00 -1.0000e+00
        5  1    4    4  501    0 -2.0581299141e+01 +1.6173832953e+01 +1.0057091526e+01 2.8432689579e+01 4.7000000000e+00 0.0000e+00 -1.0000e+00
       -5  1    4    4    0  502 +1.9151619160e+01 -1.3092980026e+01 -7.8142979987e+00 2.4927171834e+01 4.7000000000e+00 0.0000e+00 1.0000e+00
        5  1    4    4  502    0 +1.4339246476e+01 +1.0185117308e+01 -2.2394577920e+01 2.8861006987e+01 4.7000000000e+00 0.0000e+00 1.0000e+00
       -5  1    4    4    0  501 +1.4903680412e+01 +1.9856660359e+01 +4.6097678343e+01 5.2568931881e+01 4.7000000000e+00 0.0000e+00 -1.0000e+00
</event>
<event>
10      1 +4.6527485e-10 2.40000000e+02 7.81860800e-03 1.03012300e-01
      -11 -1    0    0    0    0 +0.0000000000e+00 +0.0000000000e+00 +1.2000000000e+02 1.2000000000e+02 0.0000000000e+00 0.0000e+00 -1.0000e+00
       11 -1    0    0    0    0 -0.0000000000e+00 -0.0000000000e+00 -1.2000000000e+02 1.2000000000e+02 0.0000000000e+00 0.0000e+00 1.0000e+00
       23  2    1    2    0    0 +1.4090343989e+01 -3.6206292608e+01 +3.3348656777e+01 1.0493312447e+02 9.1593636700e+01 0.0000e+00 0.0000e+00
       25  2    1    2    0    0 -1.4090343989e+01 +3.6206292608e+01 -3.3348656777e+01 1.3506687553e+02 1.2498597737e+02 0.0000e+00 0.0000e+00
      -13  1    3    3    0    0 +1.3236327967e+01 +2.3928199997e+01 -1.1748722388e+01 2.9762251442e+01 0.0000000000e+00 0.0000e+00 1.0000e+00
       13  1    3    3    0    0 +8.5401602272e-01 -6.0134492605e+01 +4.5097379164e+01 7.5170873027e+01 0.0000000000e+00 0.0000e+00 -1.0000e+00
        5  1    4    4  501    0 -6.7291371775e-03 +1.3974371057e-01 -7.6097245967e+00 8.9452491315e+00 4.7000000000e+00 0.0000e+00 1.0000e+00
       -5  1    4    4    0  502 -1.6363026730e+01 +2.8077489241e+01 +1.5812841933e+01 3.6444890120e+01 4.7000000000e+00 0.0000e+00 1.0000e+00
        5  1    4    4  502    0 -3.1052511501e+01 +2.3103051878e+01 -7.9925033190e+00 3.9799241021e+01 4.7000000000e+00 0.0000e+00 1.0000e+00
       -5  1    4    4    0  501 +3.3331923378e+01 -1.5113992222e+01 -3.3559270794e+01 4.9877495258e+01 4.7000000000e+00 0.0000e+00 -1.0000e+00
</event>
<event>
10      1 +4.6527485e-10 2.40000000e+02 7.81860800e-03 1.03012300e-01
      -11 -1    0    0    0    0 +0.0000000000e+00 +0.0000000000e+00 +1.2000000000e+02 1.2000000000e+02 0.0000000000e+00 0.0000e+00 1.0000e+00
       11 -1    0    0    0    0 -0.0000000000e+00 -0.0000000000e+00 -1.2000000000e+02 1.2000000000e+02 0.0000000000e+00 0.0000e+00 -1.0000e+00
       23  2    1    2    0    0 +3.9854270570e+01 -1.4004471980e+01 +1.1317917414e+01 1.0757411214e+02 9.8283295782e+01 0.0000e+00 0.0000e+00
       25  2    1    2    0    0 -3.9854270570e+01 +1.4004471980e+01 -1.1317917414e+01 1.3242588786e+02 1.2499612955e+02 0.0000e+00 0.0000e+00
      -11  1    3    3    0    0 +1.8164758401e+01 +6.7562808861e+00 +5.2869808389e+01 5.6310056103e+01 0.0000000000e+00 0.0000e+00 1.0000e+00
       11  1    3    3    0    0 +2.1689512168e+01 -2.0760752866e+01 -4.1551890975e+01 5.1264056036e+01 0.0000000000e+00 0.0000e+00 -1.0000e+00
        5  1    4    4  501    0 -4.4941721927e+01 -2.0467911453e+01 +1.4875162868e+01 5.1788553169e+01 4.7000000000e+00 0.0000e+00 1.0000e+00
       -5  1    4    4    0  502 -1.1753963691e+01 -1.0499980636e+01 -6.8028966825e+00 1.7798164486e+01 4.7000000000e+00 0.0000e+00 1.0000e+00
        5  1    4    4  502    0 -1.1681210561e+00 -4.6810472097e+00 -1.8247990133e+00 6.9782950081e+00 4.7000000000e+00 0.0000e+00 -1.0000e+00
       -5  1    4    4    0  501 +1.8009536104e+01 +4.9653411278e+01 -1.7565384587e+01 5.5860875198e+01 4.7000000000e+00 0.0000e+00 -1.0000e+00
</event>
<event>
10      1 +4.6527485e-10 2.40000000e+02 7.81860800e-03 1.03012300e-01
      -11 -1    0    0    0    0 +0.0000000000e+00 +0.0000000000e+00 +1.2000000000e+02 1.2000000000e+02 0.0000000000e+00 0.0000e+00 1.0000e+00
       11 -1    0    0    0    0 -0.0000000000e+00 -0.0000000000e+00 -1.2000000000e+02 1.2000000000e+02 0.0000000000e+00 0.0000e+00 -1.0000e+00
       23  2    1    2    0    0 -1.9388264647e+01 +3.6386109925e+01 -3.0241572375e+01 1.0494649473e+02 9.1648023739e+01 0.0000e+00 0.0000e+00
       25  2    1    2    0    0 +1.9388264647e+01 -3.6386109925e+01 +3.0241572375e+01 1.3505350527e+02 1.2500017114e+02 0.0000e+00 0.0000e+00
      -13  1    3    3    0    0 -2.6903921934e+01 -2.4408413312e+01 -2.3625151203e+01 4.3332890801e+01 0.0000000000e+00 0.0000e+00 -1.0000e+00
       13  1    3    3    0    0 +7.5156572874e+00 +6.0794523238e+01 -6.6164211723e+00 6.1613603930e+01 0.0000000000e+00 0.0000e+00 1.0000e+00
        5  1    4    4  501    0 -2.8280824764e+01 -3.2704443972e+01 +3.1209020097e+01 5.3530165703e+01 4.7000000000e+00 0.0000e+00 -1.0000e+00
       -5  1    4    4    0  501 -2.8574803257e-01 -1.8286332425e+01 +6.9232171735e+00 2.0111999938e+01 4.7000000000e+00 0.0000e+00 -1.0000e+00
        5  1    4    4  502    0 +2.8932048235e+01 +4.0682871084e+00 -2.0348129539e+01 3.5913099989e+01 4.7000000000e+00 0.0000e+00 -1.0000e+00
       -5  1    4    4    0  502 +1.9022789208e+01 +1.0536379363e+01 +1.2457464643e+01 2.5498239638e+01 4.7000000000e+00 0.0000e+00 -1.0000e+00
</event>
<event>
10      1 +4.6527485e-10 2.40000000e+02 7.81860800e-03 1.03012300e-01
      -11 -1    0    0    0    0 +0.0000000000e+00 +0.0000000000e+00 +1.2000000000e+02 1.2000000000e+02 0.0000000000e+00 0.0000e+00 1.0000e+00
       11 -1    0    0    0    0 -0.0000000000e+00 -0.0000000000e+00 -1.2000000000e+02 1.2000000000e+02 0.0000000000e+00 0.0000e+00 -1.0000e+00
       23  2    1    2    0    0 -1.2476715957e+01 -4.5256599136e+01 -1.9832916732e+01 1.0500816151e+02 9.1812532869e+01 0.0000e+00 0.0000e+00
       25  2    1    2    0    0 +1.2476715957e+01 +4.5256599136e+01 +1.9832916732e+01 1.3499183849e+02 1.2500249464e+02 0.0000e+00 0.0000e+00
      -13  1    3    3    0    0 -2.2642478990e+01 +8.4062197196e+00 +2.4693012754e+01 3.4541153189e+01 0.0000000000e+00 0.0000e+00 1.0000e+00
       13  1    3    3    0    0 +1.0165763033e+01 -5.3662818855e+01 -4.4525929485e+01 7.0467008324e+01 0.0000000000e+00 0.0000e+00 -1.0000e+00
        5  1    4    4  501    0 -1.8838812573e+01 -2.3751902475e+00 -7.1398411024e+00 2.0823297502e+01 4.7000000000e+00 0.0000e+00 1.0000e+00
       -5  1    4    4    0  502 +2.8383307197e+01 +3.2674939180e+01 +4.2382472944e+01 6.0758767192e+01 4.7000000000e+00 0.0000e+00 -1.0000e+00
        5  1    4    4  502    0 +1.3945760966e+01 +2.0821479892e+01 +7.7820147554e+00 2.6658357554e+01 4.7000000000e+00 0.0000e+00 1.0000e+00
       -5  1    4    4    0  501 -1.1013539632e+01 -5.8646296887e+00 -2.3191729866e+01 2.6751416239e+01 4.7000000000e+00 0.0000e+00 1.0000e+00
</event>
<event>
10      1 +4.6527485e-10 2.40000000e+02 7.81860800e-03 1.03012300e-01
      -11 -1    0    0    0    0 +0.0000000000e+00 +0.0000000000e+00 +1.2000000000e+02 1.2000000000e+02 0.0000000000e+00 0.0000e+00 1.0000e+00
       11 -1    0    0    0    0 -0.0000000000e+00 -0.0000000000e+00 -1.2000000000e+02 1.2000000000e+02 0.0000000000e+00 0.0000e+00 -1.0000e+00
       23  2    1    2    0    0 +1.8829690109e+01 -4.6731950359e+01 +9.4706307983e+00 1.0489592980e+02 9.1515194511e+01 0.0000e+00 0.0000e+00
       25  2    1    2    0    0 -1.8829690109e+01 +4.6731950359e+01 -9.4706307983e+00 1.3510407020e+02 1.2499993809e+02 0.0000e+00 0.0000e+00
      -13  1    3    3    0    0 +1.4460050194e+01 +2.5929011854e+01 +1.2091879266e+01 3.2056516522e+01 0.0000000000e+00 0.0000e+00 1.0000e+00
       13  1    3    3    0    0 +4.3696399149e+00 -7.2660962213e+01 -2.6212484681e+00 7.2839413275e+01 0.0000000000e+00 0.0000e+00 -1.0000e+00
        5  1    4    4  501    0 -1.6282872867e+01 -1.2968102062e+01 -4.7509767595e+01 5.2082354371e+01 4.7000000000e+00 0.0000e+00 -1.0000e+00
       -5  1    4    4    0  502 -3.3110466326e+00 +1.2759227122e+01 +1.2885717984e+01 1.9023475879e+01 4.7000000000e+00 0.0000e+00 -1.0000e+00
        5  1    4    4  502    0 -9.5799238105e+00 +1.1808235607e+01 +2.1703103520e+01 2.6913269418e+01 4.7000000000e+00 0.0000e+00 1.0000e+00
       -5  1    4    4    0  501 +1.0344153202e+01 +3.5132589692e+01 +3.4503152928e+00 3.7084970535e+01 4.7000000000e+00 0.0000e+00 1.0000e+00
</event>
<event>
10      1 +4.6527485e-10 2.40000000e+02 7.81860800e-03 1.03012300e-01
      -11 -1    0    0    0    0 +0.0000000000e+00 +0.0000000000e+00 +1.2000000000e+02 1.2000000000e+02 0.0000000000e+00 0.0000e+00 1.0000e+00
       11 -1    0    0    0    0 -0.0000000000e+00 -0.0000000000e+00 -1.2000000000e+02 1.2000000000e+02 0.0000000000e+00 0.0000e+00 -1.0000e+00
       23  2    1    2    0    0 +3.8752177344e+01 -3.0409165944e+01 +2.1618817212e+01 1.0392017395e+02 8.8913332375e+01 0.0000e+00 0.0000e+00
       25  2    1    2    0    0 -3.8752177344e+01 +3.0409165944e+01 -2.1618817212e+01 1.3607982605e+02 1.2499558863e+02 0.0000e+00 0.0000e+00
      -11  1    3    3    0    0 +1.7732858848e+01 +1.0708264845e+01 -2.8847472279e+01 3.5514755747e+01 0.0000000000e+00 0.0000e+00 -1.0000e+00
       11  1    3    3    0    0 +2.1019318496e+01 -4.1117430788e+01 +5.0466289491e+01 6.8405418204e+01 0.0000000000e+00 0.0000e+00 1.0000e+00
        5  1    4    4  501    0 -2.9902990829e+01 +6.0412572597e+01 -3.9850325878e+01 7.8447474535e+01 4.7000000000e+00 0.0000e+00 1.0000e+00
       -5  1    4    4    0  501 -4.0499001138e+00 +4.0047750711e+00 -7.1405917761e+00 1.0272193788e+01 4.7000000000e+00 0.0000e+00 1.0000e+00
        5  1    4    4  502    0 +1.7226648639e+00 -8.2009586842e-01 +6.8156706233e+00 8.4960871883e+00 4.7000000000e+00 0.0000e+00 -1.0000e+00
       -5  1    4    4    0  502 -6.5219512655e+00 -3.3188085856e+01 +1.8556429820e+01 3.8864070538e+01 4.7000000000e+00 0.0000e+00 -1.0000e+00
</event>
<event>
10      1 +4.6527485e-10 2.40000000e+02 7.81860800e-03 1.03012300e-01
      -11 -1    0    0    0    0 +0.0000000000e+00 +0.0000000000e+00 +1.2000000000e+02 1.2000000000e+02 0.0000000000e+00 0.0000e+00 -1.0000e+00
       11 -1    0    0    0    0 -0.0000000000e+00 -0.0000000000e+00 -1.2000000000e+02 1.2000000000e+02 0.0000000000e+00 0.0000e+00 1.0000e+00
       23  2    1    2    0    0 +1.6442888419e+00 +2.6392413510e+01 +4.1780857890e+01 1.0556771603e+02 9.3271857521e+01 0.0000e+00 0.0000e+00
       25  2    1    2    0    0 -1.6442888419e+00 -2.6392413510e+01 -4.1780857890e+01 1.3443228397e+02 1.2500854255e+02 0.0000e+00 0.0000e+00
      -11  1    3    3    0    0 -1.0627009632e+01 +2.9016266561e+01 -2.3669924416e+01 3.8924829874e+01 0.0000000000e+00 0.0000e+00 1.0000e+00
       11  1    3    3    0    0 +1.2271298474e+01 -2.6238530506e+00 +6.5450782306e+01 6.6642886158e+01 0.0000000000e+00 0.0000e+00 -1.0000e+00
        5  1    4    4  501    0 +1.2294698482e+01 -4.7063430438e+01 -2.9553894203e+01 5.7110846237e+01 4.7000000000e+00 0.0000e+00 1.0000e+00
       -5  1    4    4    0  502 -9.6191020639e+00 +2.2253712103e+01 +1.0463359677e+00 2.4717193325e+01 4.7000000000e+00 0.0000e+00 1.0000e+00
        5  1    4    4  502    0 -2.1794033189e+01 +1.4176560210e+01 -1.0571443057e+01 2.8456987725e+01 4.7000000000e+00 0.0000e+00 1.0000e+00
       -5  1    4    4    0  501 +1.7474147929e+01 -1.5759255386e+01 -2.7018565977e+00 2.4147256682e+01 4.7000000000e+00 0.0000e+00 1.0000e+00
</event>
<event>
10      1 +4.6527485e-10 2.40000000e+02 7.81860800e-03 1.03012300e-01
      -11 -1    0    0    0    0 +0.0000000000e+00 +0.0000000000e+00 +1.2000000000e+02 1.2000000000e+02 0.0000000000e+00 0.0000e+00 -1.0000e+00
       11 -1    0    0    0    0 -0.0000000000e+00 -0.0000000000e+00 -1.2000000000e+02 1.2000000000e+02 0.0000000000e+00 0.0000e+00 1.0000e+00
       23  2    1    2    0    0 +3.3210666830e+01 -3.7254683957e+01 +2.0666847953e+01 1.0382252040e+02 8.8663054709e+01 0.0000e+00 0.0000e+00
       25  2    1    2    0    0 -3.3210666830e+01 +3.7254683957e+01 -2.0666847953e+01 1.3617747960e+02 1.2500530980e+02 0.0000e+00 0.0000e+00
      -13  1    3    3    0    0 +5.0816730064e+01 -4.3438938521e+01 -1.0326067112e+01 6.7645466192e+01 0.0000000000e+00 0.0000e+00 1.0000e+00
       13  1    3    3    0    0 -1.7606063234e+01 +6.1842545648e+00 +3.0992915065e+01 3.6177054210e+01 0.0000000000e+00 0.0000e+00 -1.0000e+00
        5  1    4    4  501    0 -2.1168379948e+01 -2.8966285322e+01 -1.4492316940e+01 3.8977727553e+01 4.7000000000e+00 0.0000e+00 -1.0000e+00
       -5  1    4    4    0  502 -3.1422579685e+00 +7.2100857008e+00 -4.5238311519e+00 1.0218325168e+01 4.7000000000e+00 0.0000e+00 -1.0000e+00
        5  1    4    4  502    0 -2.0506989238e+01 +6.8235368858e+01 -1.7906855356e+00 7.1427576786e+01 4.7000000000e+00 0.0000e+00 1.0000e+00
       -5  1    4    4    0  501 +1.1606960324e+01 -9.2244852807e+00 +1.3998567439e-01 1.5553850091e+01 4.7000000000e+00 0.0000e+00 -1.0000e+00
</event>
<event>
10      1 +4.6527485e-10 2.40000000e+02 7.81860800e-03 1.03012300e-01
      -11 -1    0    0    0    0 +0.0000000000e+00 +0.0000000000e+00 +1.2000000000e+02 1.2000000000e+02 0.0000000000e+00 0.0000e+00 -1.0000e+00
       11 -1    0    0    0    0 -0.0000000000e+00 -0.0000000000e+00 -1.2000000000e+02 1.2000000000e+02 0.0000000000e+00 0.0000e+00 1.0000e+00
       23  2    1    2    0    0 +2.5283382478e+01 -3.0253709762e+01 +3.9384402573e+01 1.0314175409e+02 8.6790286825e+01 0.0000e+00 0.0000e+00
       25  2    1    2    0    0 -2.5283382478e+01 +3.0253709762e+01 -3.9384402573e+01 1.3685824591e+02 1.2499804768e+02 0.0000e+00 0.0000e+00
      -13  1    3    3    0    0 +2.9262421901e+01 +1.1427471606e+01 -1.4749389281e+01 3.4704768072e+01 0.0000000000e+00 0.0000e+00 1.0000e+00
       13  1    3    3    0    0 -3.9790394227e+00 -4.1681181367e+01 +5.4133791854e+01 6.8436986019e+01 0.0000000000e+00 0.0000e+00 -1.0000e+00
        5  1    4    4  501    0 +6.3598221625e+00 +5.4803419299e+00 +6.0042932819e+00 1.1341209081e+01 4.7000000000e+00 0.0000e+00 1.0000e+00
       -5  1    4    4    0  501 +3.3688331948e+00 +9.2430421632e-01 +3.2880903675e+01 3.3398311362e+01 4.7000000000e+00 0.0000e+00 1.0000e+00
        5  1    4    4  502    0 -2.4453384313e+01 +4.7752256077e+00 -3.2642512111e+01 4.1332727721e+01 4.7000000000e+00 0.0000e+00 1.0000e+00
       -5  1    4    4    0  502 -1.0558653522e+01 +1.9073838008e+01 -4.5627087419e+01 5.0785997744e+01 4.7000000000e+00 0.0000e+00 1.0000e+00
</event>
<event>
10      1 +4.6527485e-10 2.40000000e+02 7.81860800e-03 1.03012300e-01
      -11 -1    0    0    0    0 +0.0000000000e+00 +0.0000000000e+00 +1.2000000000e+02 1.2000000000e+02 0.0000000000e+00 0.0000e+00 1.0000e+00
       11 -1    0    0    0    0 -0.0000000000e+00 -0.0000000000e+00 -1.2000000000e+02 1.2000000000e+02 0.0000000000e+00 0.0000e+00 -1.0000e+00
       23  2    1    2    0    0 +3.2302440869e+01 +3.5988263724e+01 -1.4022428477e+01 1.0524324415e+02 9.2417039164e+01 0.0000e+00 0.0000e+00
       25  2    1    2    0    0 -3.2302440869e+01 -3.5988263724e+01 +1.4022428477e+01 1.3475675585e+02 1.2499660769e+02 0.0000e+00 0.0000e+00
      -11  1    3    3    0    0 +2.4434318021e+01 -1.0394684584e+01 -4.2600061783e+01 5.0198113796e+01 0.0000000000e+00 0.0000e+00 -1.0000e+00
       11  1    3    3    0    0 +7.8681228481e+00 +4.6382948308e+01 +2.8577633305e+01 5.5045130359e+01 0.0000000000e+00 0.0000e+00 1.0000e+00
        5  1    4    4  501    0 +5.5566411267e+00 -4.7216595723e+01 +1.3117092887e+01 4.9542217332e+01 4.7000000000e+00 0.0000e+00 -1.0000e+00
       -5  1    4    4    0  501 -2.7473091272e+00 -2.5603162066e+01 +1.5286683515e+01 3.0312411783e+01 4.7000000000e+00 0.0000e+00 -1.0000e+00
        5  1    4    4  502    0 -2.4119307358e+01 +3.1306513863e+01 -1.0211800376e+01 4.1087828668e+01 4.7000000000e+00 0.0000e+00 -1.0000e+00
       -5  1    4    4    0  502 -1.0992465510e+01 +5.5249802018e+00 -4.1695475487e+00 1.3814298063e+01 4.7000000000e+00 0.0000e+00 -1.0000e+00
</event>
<event>
10      1 +4.6527485e-10 2.40000000e+02 7.81860800e-03 1.03012300e-01
      -11 -1    0    0    0    0 +0.0000000000e+00 +0.0000000000e+00 +1.2000000000e+02 1.2000000000e+02 0.0000000000e+00 0.0000e+00 1.0000e+00
       11 -1    0    0    0    0 -0.0000000000e+00 -0.0000000000e+00 -1.2000000000e+02 1.2000000000e+02 0.0000000000e+00 0.0000e+00 -1.0000e+00
       23  2    1    2    0    0 +4.5502453814e+01 +7.7254783107e+00 -5.7827361233e+00 1.0662488536e+02 9.5944097385e+01 0.0000e+00 0.0000e+00
       25  2    1    2    0    0 -4.5502453814e+01 -7.7254783107e+00 +5.7827361233e+00 1.3337511464e+02 1.2500129939e+02 0.0000e+00 0.0000e+00
      -11  1    3    3    0    0 -9.7537363724e+00 -2.0854892309e+01 -3.1744908952e+01 3.9214807801e+01 0.0000000000e+00 0.0000e+00 -1.0000e+00
       11  1    3    3    0    0 +5.5256190187e+01 +2.8580370620e+01 +2.5962172829e+01 6.7410077561e+01 0.0000000000e+00 0.0000e+00 1.0000e+00
        5  1    4    4  501    0 -1.3774076096e+00 -1.7546009079e+00 -5.8902601000e-01 5.2357260919e+00 4.7000000000e+00 0.0000e+00 -1.0000e+00
       -5  1    4    4    0  502 +2.5437824206e+01 +2.3787216146e+01 -1.1258920454e+01 3.6902138719e+01 4.7000000000e+00 0.0000e+00 1.0000e+00
        5  1    4    4  502    0 -5.4580763017e-01 +9.0134371662e+00 +1.1834914677e+00 1.0248444154e+01 4.7000000000e+00 0.0000e+00 -1.0000e+00
       -5  1    4    4    0  501 -6.9017062780e+01 -3.8771530715e+01 +1.6447191119e+01 8.0988805674e+01 4.7000000000e+00 0.0000e+00 1.0000e+00
</event>
<event>
10      1 +4.6527485e-10 2.40000000e+02 7.81860800e-03 1.03012300e-01
      -11 -1    0    0    0    0 +0.0000000000e+00 +0.0000000000e+00 +1.2000000000e+02 1.2000000000e+02 0.0000000000e+00 0.0000e+00 -1.0000e+00
       11 -1    0    0    0    0 -0.0000000000e+00 -0.0000000000e+00 -1.2000000000e+02 1.2000000000e+02 0.0000000000e+00 0.0000e+00 1.0000e+00
       23  2    1    2    0    0 +4.3133326590e+01 +6.8410178346e+00 -2.6430246812e+01 1.0497712411e+02 9.1729794785e+01 0.0000e+00 0.0000e+00
       25  2    1    2    0    0 -4.3133326590e+01 -6.8410178346e+00 +2.6430246812e+01 1.3502287589e+02 1.2500134271e+02 0.0000e+00 0.0000e+00
      -11  1    3    3    0    0 -1.1561746688e+01 +2.8186668062e+01 -3.4143820482e+01 4.5759837413e+01 0.0000000000e+00 0.0000e+00 1.0000e+00
       11  1    3    3    0    0 +5.4695073279e+01 -2.1345650228e+01 +7.7135736701e+00 5.9217286694e+01 0.0000000000e+00 0.0000e+00 -1.0000e+00
        5  1    4    4  501    0 +6.1083203949e+00 +2.0458201649e+00 -4.2310849099e+01 4.3055718664e+01 4.7000000000e+00 0.0000e+00 1.0000e+00
       -5  1    4    4    0  502 -1.1447176652e+00 -1.4929651143e+00 +2.5526323463e+00 5.6696785853e+00 4.7000000000e+00 0.0000e+00 1.0000e+00
        5  1    4    4  502    0 -2.3528727696e+01 +4.6647134038e+00 +1.6871492948e+01 2.9700132195e+01 4.7000000000e+00 0.0000e+00 1.0000e+00
       -5  1    4    4    0  501 -2.4568201625e+01 -1.2058586289e+01 +4.9316970617e+01 5.6597346450e+01 4.7000000000e+00 0.0000e+00 1.0000e+00
</event>
<event>
10      1 +4.6527485e-10 2.40000000e+02 7.81860800e-03 1.03012300e-01
      -11 -1    0    0    0    0 +0.0000000000e+00 +0.0000000000e+00 +1.2000000000e+02 1.2000000000e+02 0.0000000000e+00 0.0000e+00 -1.0000e+00
       11 -1    0    0    0    0 -0.0000000000e+00 -0.0000000000e+00 -1.2000000000e+02 1.2000000000e+02 0.0000000000e+00 0.0000e+00 1.0000e+00
       23  2    1    2    0    0 +3.6151035744e+01 -3.6481235234e+01 -8.1527253694e-01 1.0485788983e+02 9.1415176420e+01 0.0000e+00 0.0000e+00
       25  2    1    2    0    0 -3.6151035744e+01 +3.6481235234e+01 +8.1527253694e-01 1.3514211017e+02 1.2499978945e+02 0.0000e+00 0.0000e+00
      -13  1    3    3    0    0 +4.2038237099e+01 -9.1659143368e+00 +3.7746452398e+01 5.7236544555e+01 0.0000000000e+00 0.0000e+00 -1.0000e+00
       13  1    3    3    0    0 -5.8872013545e+00 -2.7315320897e+01 -3.8561724935e+01 4.7621345271e+01 0.0000000000e+00 0.0000e+00 1.0000e+00
        5  1    4    4  501    0 +1.1038558597e+01 -1.4510858415e+01 +1.6030039109e+00 1.8896412606e+01 4.7000000000e+00 0.0000e+00 -1.0000e+00
       -5  1    4    4    0  501 +3.5507084923e+00 -1.7239304213e+01 +1.8869262132e+01 2.6228614030e+01 4.7000000000e+00 0.0000e+00 -1.0000e+00
        5  1    4    4  502    0 -2.2145663185e+00 +5.8317987167e+00 -5.5548592405e+00 9.5843957260e+00 4.7000000000e+00 0.0000e+00 -1.0000e+00
       -5  1    4    4    0  502 -4.8525736515e+01 +6.2399599145e+01 -1.4102134266e+01 8.0432687812e+01 4.7000000000e+00 0.0000e+00 -1.0000e+00
</event>
<event>
10      1 +4.6527485e-10 2.40000000e+02 7.81860800e-03 1.03012300e-01
      -11 -1    0    0    0    0 +0.0000000000e+00 +0.0000000000e+00 +1.2000000000e+02 1.2000000000e+02 0.0000000000e+00 0.0000e+00 -1.0000e+00
       11 -1    0    0    0    0 -0.0000000000e+00 -0.0000000000e+00 -1.2000000000e+02 1.2000000000e+02 0.0000000000e+00 0.0000e+00 1.0000e+00
       23  2    1    2    0    0 -3.6291102473e+01 -1.7486449036e+01 +3.3086148884e+01 1.0458924548e+02 9.0671919603e+01 0.0000e+00 0.0000e+00
       25  2    1    2    0    0 +3.6291102473e+01 +1.7486449036e+01 -3.3086148884e+01 1.3541075452e+02 1.2497423403e+02 0.0000e+00 0.0000e+00
      -13  1    3    3    0    0 +2.4352407598e+01 -2.0274000623e+01 +3.0261690545e+01 4.3816033273e+01 0.0000000000e+00 0.0000e+00 -1.0000e+00
       13  1    3    3    0    0 -6.0643510072e+01 +2.7875515867e+00 +2.8244583387e+00 6.0773212212e+01 0.0000000000e+00 0.0000e+00 1.0000e+00
        5  1    4    4  501    0 -2.0975666319e+01 +3.0636217059e+01 +2.8994951001e+00 3.7537360656e+01 4.7000000000e+00 0.0000e+00 -1.0000e+00
       -5  1    4    4    0  501 -1.3090738557e+01 +3.0035335658e+00 -1.1728095564e+01 1.8439817662e+01 4.7000000000e+00 0.0000e+00 -1.0000e+00
        5  1    4    4  502    0 +3.4641811935e+01 -1.0827152868e+01 -2.2532028876e+01 4.2977490604e+01 4.7000000000e+00 0.0000e+00 -1.0000e+00
       -5  1    4    4    0  502 +3.5715695414e+01 -5.3261487199e+00 -1.7255195443e+00 3.6456085593e+01 4.7000000000e+00 0.0000e+00 -1.0000e+00
</event>
<event>
10      1 +4.6527485e-10 2.40000000e+02 7.81860800e-03 1.03012300e-01
      -11 -1    0    0    0    0 +0.0000000000e+00 +0.0000000000e+00 +1.2000000000e+02 1.2000000000e+02 0.0000000000e+00 0.0000e+00 1.0000e+00
       11 -1    0    0    0    0 -0.0000000000e+00 -0.0000000000e+00 -1.2000000000e+02 1.2000000000e+02 0.0000000000e+00 0.0000e+00 -1.0000e+00
       23  2    1    2    0    0 -5.1670865076e+01 -1.1991363967e+01 +4.5346098408e+00 1.0413002246e+02 8.9492054302e+01 0.0000e+00 0.0000e+00
       25  2    1    2    0    0 +5.1670865076e+01 +1.1991363967e+01 -4.5346098408e+00 1.3586997754e+02 1.2500566788e+02 0.0000e+00 0.0000e+00
      -13  1    3    3    0    0 -6.0003330050e+01 +1.4972551444e+01 -2.1757191604e+01 6.5558769820e+01 0.0000000000e+00 0.0000e+00 -1.0000e+00
       13  1    3    3    0    0 +8.3324649736e+00 -2.6963915412e+01 +2.6291801444e+01 3.8571252638e+01 0.0000000000e+00 0.0000e+00 1.0000e+00
        5  1    4    4  501    0 +1.0170187356e+01 +4.4016634228e+00 +2.7594127897e+00 1.2349563178e+01 4.7000000000e+00 0.0000e+00 -1.0000e+00
       -5  1    4    4    0  502 +1.5442944060e+01 -1.6119089404e+01 -7.8772875468e+00 2.4134026261e+01 4.7000000000e+00 0.0000e+00 -1.0000e+00
        5  1    4    4  502    0 -9.5133168817e+00 -3.1668855901e+01 +1.6047982860e-01 3.3399631524e+01 4.7000000000e+00 0.0000e+00 -1.0000e+00
       -5  1    4    4    0  501 +3.5571050542e+01 +5.5377645850e+01 +4.2278508776e-01 6.5986756579e+01 4.7000000000e+00 0.0000e+00 -1.0000e+00
</event>
<event>
10      1 +4.6527485e-10 2.40000000e+02 7.81860800e-03 1.03012300e-01
      -11 -1    0    0    0    0 +0.0000000000e+00 +0.0000000000e+00 +1.2000000000e+02 1.2000000000e+02 0.0000000000e+00 0.0000e+00 -1.0000e+00
       11 -1    0    0    0    0 -0.0000000000e+00 -0.0000000000e+00 -1.2000000000e+02 1.2000000000e+02 0.0000000000e+00 0.0000e+00 1.0000e+00
       23  2    1    2    0    0 +2.7279813432e+01 +4.6174800087e+01 -2.0319773668e+01 1.0247126570e+02 8.4918588709e+01 0.0000e+00 0.0000e+00
       25  2    1    2    0    0 -2.7279813432e+01 -4.6174800087e+01 +2.0319773668e+01 1.3752873430e+02 1.2499983669e+02 0.0000e+00 0.0000e+00
      -11  1    3    3    0    0 -3.4567455585e+00 -1.2114336906e+01 -3.3038168045e+01 3.5358546298e+01 0.0000000000e+00 0.0000e+00 1.0000e+00
       11  1    3    3    0    0 +3.0736558990e+01 +5.8289136993e+01 +1.2718394377e+01 6.7112719401e+01 0.0000000000e+00 0.0000e+00 -1.0000e+00
        5  1    4    4  501    0 -1.8227550599e+01 -6.7690066950e+00 -5.8211749242e+00 2.0833605784e+01 4.7000000000e+00 0.0000e+00 -1.0000e+00
       -5  1    4    4    0  501 -2.8971160595e+01 -2.6955391697e+00 -3.0979677938e+01 4.2760080949e+01 4.7000000000e+00 0.0000e+00 -1.0000e+00
        5  1    4    4  502    0 +5.8757209169e+00 -2.9336948533e+01 +3.4445862068e+01 4.5867069441e+01 4.7000000000e+00 0.0000e+00 -1.0000e+00
       -5  1    4    4    0  502 +1.4043176845e+01 -7.3733056885e+00 +2.2674764462e+01 2.8067978126e+01 4.7000000000e+00 0.0000e+00 -1.0000e+00
</event>
<event>
10      1 +4.6527485e-10 2.40000000e+02 7.81860800e-03 1.03012300e-01
      -11 -1    0    0    0    0 +0.0000000000e+00 +0.0000000000e+00 +1.2000000000e+02 1.2000000000e+02 0.0000000000e+00 0.0000e+00 1.0000e+00
       11 -1    0    0    0    0 -0.0000000000e+00 -0.0000000000e+00 -1.2000000000e+02 1.2000000000e+02 0.0000000000e+00 0.0000e+00 -1.0000e+00
       23  2    1    2    0    0 -1.1774618819e+01 -2.4998275491e+00 +4.8842426893e+01 1.0525838468e+02 9.2460013493e+01 0.0000e+00 0.0000e+00
       25  2    1    2    0    0 +1.1774618819e+01 +2.4998275491e+00 -4.8842426893e+01 1.3474161532e+02 1.2499931779e+02 0.0000e+00 0.0000e+00
      -13  1    3    3    0    0 +3.5737113954e+01 +1.5926552916e+01 +7.9612073208e+00 3.9927148954e+01 0.0000000000e+00 0.0000e+00 -1.0000e+00
       13  1    3    3    0    0 -4.7511732773e+01 -1.8426380465e+01 +4.0881219572e+01 6.5331235729e+01 0.0000000000e+00 0.0000e+00 1.0000e+00
        5  1    4    4  501    0 +3.4279919170e+01 +6.4449765470e+00 -1.3938529592e+01 3.7855292737e+01 4.7000000000e+00 0.0000e+00 -1.0000e+00
       -5  1    4    4    0  501 +2.0407654630e+01 -2.3253794794e+01 +2.5928003979e+00 3.1401018355e+01 4.7000000000e+00 0.0000e+00 -1.0000e+00
        5  1    4    4  502    0 -1.8660435902e+00 -2.1023251064e+00 -1.0090799805e+01 1.1481120600e+01 4.7000000000e+00 0.0000e+00 1.0000e+00
       -5  1    4    4    0  502 -4.1046911391e+01 +2.1410970903e+01 -2.7405897894e+01 5.4004183626e+01 4.7000000000e+00 0.0000e+00 1.0000e+00
</event>
<event>
10      1 +4.6527485e-10 2.40000000e+02 7.81860800e-03 1.03012300e-01
      -11 -1    0    0    0    0 +0.0000000000e+00 +0.0000000000e+00 +1.2000000000e+02 1.2000000000e+02 0.0000000000e+00 0.0000e+00 -1.0000e+00
       11 -1    0    0    0    0 -0.0000000000e+00 -0.0000000000e+00 -1.2000000000e+02 1.2000000000e+02 0.0000000000e+00 0.0000e+00 1.0000e+00
       23  2    1    2    0    0 -7.3216303808e+00 +3.0878641726e+01 -4.0238577374e+01 1.0490068004e+02 9.1530938905e+01 0.0000e+00 0.0000e+00
       25  2    1    2    0    0 +7.3216303808e+00 -3.0878641726e+01 +4.0238577374e+01 1.3509931996e+02 1.2500234541e+02 0.0000e+00 0.0000e+00
      -13  1    3    3    0    0 +2.1185147977e+01 +4.6320139745e+01 -4.9662159538e+01 7.1138568518e+01 0.0000000000e+00 0.0000e+00 1.0000e+00
       13  1    3    3    0    0 -2.8506778358e+01 -1.5441498019e+01 +9.4235821643e+00 3.3762111519e+01 0.0000000000e+00 0.0000e+00 -1.0000e+00
        5  1    4    4  501    0 +1.8019495360e+00 -5.9997473580e+01 +4.6766242814e+01 7.6237230570e+01 4.7000000000e+00 0.0000e+00 -1.0000e+00
       -5  1    4    4    0  502 -4.9175976589e+00 +1.4067140322e+01 +1.0229039420e+00 1.5658976213e+01 4.7000000000e+00 0.0000e+00 -1.0000e+00
        5  1    4    4  502    0 +6.4877686510e+00 +2.0885372134e+01 -1.8732030456e+01 2.9176512407e+01 4.7000000000e+00 0.0000e+00 -1.0000e+00
       -5  1    4    4    0  501 +3.9495098527e+00 -5.8336806028e+00 +1.1181461075e+01 1.4026600772e+01 4.7000000000e+00 0.0000e+00 -1.0000e+00
</event>
<event>
10      1 +4.6527485e-10 2.40000000e+02 7.81860800e-03 1.03012300e-01
      -11 -1    0    0    0    0 +0.0000000000e+00 +0.0000000000e+00 +1.2000000000e+02 1.2000000000e+02 0.0000000000e+00 0.0000e+00 1.0000e+00
       11 -1    0    0    0    0 -0.0000000000e+00 -0.0000000000e+00 -1.2000000000e+02 1.2000000000e+02 0.0000000000e+00 0.0000e+00 -1.0000e+00
       23  2    1    2    0    0 -4.7925906101e+01 +3.7601156930e+01 -7.9327223471e+00 1.0071950202e+02 7.9816981436e+01 0.0000e+00 0.0000e+00
       25  2    1    2    0    0 +4.7925906101e+01 -3.7601156930e+01 +7.9327223471e+00 1.3928049798e+02 1.2500155821e+02 0.0000e+00 0.0000e+00
      -13  1    3    3    0    0 -3.5612850261e+00 -2.4003709802e+01 +9.4766145944e-01 2.4284952080e+01 0.0000000000e+00 0.0000e+00 1.0000e+00
       13  1    3    3    0    0 -4.4364621075e+01 +6.1604866732e+01 -8.8803838065e+00 7.6434549942e+01 0.0000000000e+00 0.0000e+00 -1.0000e+00
        5  1    4    4  501    0 +5.4165226295e+01 -4.7420970258e+01 +5.2122100149e+00 7.2331717061e+01 4.7000000000e+00 0.0000e+00 -1.0000e+00
       -5  1    4    4    0  501 +1.2567584092e+01 -1.3586093948e+01 -9.3065472968e+00 2.1242126571e+01 4.7000000000e+00 0.0000e+00 -1.0000e+00
        5  1    4    4  502    0 -2.0796111985e+01 +1.2567524430e+01 +1.9568638112e+01 3.1550634567e+01 4.7000000000e+00 0.0000e+00 1.0000e+00
       -5  1    4    4    0  502 +1.9892076999e+00 +1.0838382845e+01 -7.5415784831e+00 1.4156019779e+01 4.7000000000e+00 0.0000e+00 1.0000e+00
</event>
<event>
10      1 +4.6527485e-10 2.40000000e+02 7.81860800e-03 1.03012300e-01
      -11 -1    0    0    0    0 +0.0000000000e+00 +0.0000000000e+00 +1.2000000000e+02 1.2000000000e+02 0.0000000000e+00 0.0000e+00 -1.0000e+00
       11 -1    0    0    0    0 -0.0000000000e+00 -0.0000000000e+00 -1.2000000000e+02 1.2000000000e+02 0.0000000000e+00 0.0000e+00 1.0000e+00
       23  2    1    2    0    0 -3.2949437419e+01 +4.0053474540e+01 -1.0211213265e+01 1.0428392648e+02 8.9893949729e+01 0.0000e+00 0.0000e+00
       25  2    1    2    0    0 +3.2949437419e+01 -4.0053474540e+01 +1.0211213265e+01 1.3571607352e+02 1.2499854993e+02 0.0000e+00 0.0000e+00
      -13  1    3    3    0    0 -6.1945958668e+01 +2.6344062024e+01 -2.0884968180e+01 7.0480446190e+01 0.0000000000e+00 0.0000e+00 -1.0000e+00
       13  1    3    3    0    0 +2.8996521249e+01 +1.3709412516e+01 +1.0673754914e+01 3.3803480295e+01 0.0000000000e+00 0.0000e+00 1.0000e+00
        5  1    4    4  501    0 -2.6989996448e+01 -5.5241346227e+00 +2.8749818578e+00 2.8095043910e+01 4.7000000000e+00 0.0000e+00 1.0000e+00
       -5  1    4    4    0  502 +5.9605506537e+00 +1.3594823994e+00 +2.5509159876e-01 7.7156612298e+00 4.7000000000e+00 0.0000e+00 -1.0000e+00
        5  1    4    4  502    0 +6.9125565471e+01 -3.2524024563e+01 +2.0075597888e+01 7.9128222563e+01 4.7000000000e+00 0.0000e+00 1.0000e+00
       -5  1    4    4    0  501 -1.5146682257e+01 -3.3647977536e+00 -1.2994458080e+01 2.0777145812e+01 4.7000000000e+00 0.0000e+00 -1.0000e+00
</event>
<event>
10      1 +4.6527485e-10 2.40000000e+02 7.81860800e-03 1.03012300e-01
      -11 -1    0    0    0    0 +0.0000000000e+00 +0.0000000000e+00 +1.2000000000e+02 1.2000000000e+02 0.0000000000e+00 0.0000e+00 -1.0000e+00
       11 -1    0    0    0    0 -0.0000000000e+00 -0.0000000000e+00 -1.2000000000e+02 1.2000000000e+02 0.0000000000e+00 0.0000e+00 1.0000e+00
       23  2    1    2    0    0 -4.9578624151e+00 -3.3218448600e+01 +3.7196086951e+01 1.0533038940e+02 9.2643922193e+01 0.0000e+00 0.0000e+00
       25  2    1    2    0    0 +4.9578624151e+00 +3.3218448600e+01 -3.7196086951e+01 1.3466961060e+02 1.2499723760e+02 0.0000e+00 0.0000e+00
      -13  1    3    3    0    0 +2.6029547468e+01 -2.6752070203e+01 -1.8201053365e+01 4.1526966481e+01 0.0000000000e+00 0.0000e+00 1.0000e+00
       13  1    3    3    0    0 -3.0987409883e+01 -6.4663783968e+00 +5.5397140316e+01 6.3803422917e+01 0.0000000000e+00 0.0000e+00 -1.0000e+00
        5  1    4    4  501    0 +4.5776423723e+00 -7.3433291426e+00 -3.0161946109e+01 3.1728729657e+01 4.7000000000e+00 0.0000e+00 -1.0000e+00
       -5  1    4    4    0  501 +1.3338392082e+01 -2.1441022950e+01 -2.2264915115e+01 3.3991860990e+01 4.7000000000e+00 0.0000e+00 -1.0000e+00
        5  1    4    4  502    0 -9.1325337024e+00 +2.4246324753e+01 +1.5793318841e+01 3.0705151944e+01 4.7000000000e+00 0.0000e+00 -1.0000e+00
       -5  1    4    4    0  502 -3.8256383371e+00 +3.7756475939e+01 -5.6254456869e-01 3.8243868011e+01 4.7000000000e+00 0.0000e+00 -1.0000e+00
</event>
<event>
10      1 +4.6527485e-10 2.40000000e+02 7.81860800e-03 1.03012300e-01
      -11 -1    0    0    0    0 +0.0000000000e+00 +0.0000000000e+00 +1.2000000000e+02 1.2000000000e+02 0.0000000000e+00 0.0000e+00 -1.0000e+00
       11 -1    0    0    0    0 -0.0000000000e+00 -0.0000000000e+00 -1.2000000000e+02 1.2000000000e+02 0.0000000000e+00 0.0000e+00 1.0000e+00
       23  2    1    2    0    0 +3.7095884602e+01 -3.7015759578e+00 -3.2269673301e+01 1.0562646634e+02 9.3412056278e+01 0.0000e+00 0.0000e+00
       25  2    1    2    0    0 -3.7095884602e+01 +3.7015759578e+00 +3.2269673301e+01 1.3437353366e+02 1.2500043365e+02 0.0000e+00 0.0000e+00
      -11  1    3    3    0    0 +5.1588024856e+01 -1.2443314573e+01 +1.5223397004e+01 5.5207899820e+01 0.0000000000e+00 0.0000e+00 -1.0000e+00
       11  1    3    3    0    0 -1.4492140255e+01 +8.7417386151e+00 -4.7493070305e+01 5.0418566523e+01 0.0000000000e+00 0.0000e+00 1.0000e+00
        5  1    4    4  501    0 -4.3624628169e-02 -1.2742571472e+01 -2.2387858134e+01 2.6185515513e+01 4.7000000000e+00 0.0000e+00 -1.0000e+00
       -5  1    4    4    0  501 +1.2644526652e+01 -1.4221583649e+01 -7.7286495451e+00 2.1070346925e+01 4.7000000000e+00 0.0000e+00 -1.0000e+00
        5  1    4    4  502    0 -3.8469676681e+01 +2.7742750686e+01 +4.3942664042e+01 6.4827648135e+01 4.7000000000e+00 0.0000e+00 1.0000e+00
       -5  1    4    4    0  502 -1.1227109945e+01 +2.9229803929e+00 +1.8443516938e+01 2.2290023085e+01 4.7000000000e+00 0.0000e+00 -1.0000e+00
</event>
<event>
10      1 +4.6527485e-10 2.40000000e+02 7.81860800e-03 1.03012300e-01
      -11 -1    0    0    0    0 +0.0000000000e+00 +0.0000000000e+00 +1.2000000000e+02 1.2000000000e+02 0.0000000000e+00 0.0000e+00 1.0000e+00
       11 -1    0    0    0    0 -0.0000000000e+00 -0.0000000000e+00 -1.2000000000e+02 1.2000000000e+02 0.0000000000e+00 0.0000e+00 -1.0000e+00
       23  2    1    2    0    0 -4.4043664095e+01 +2.5640088327e+01 -1.4454494808e+01 1.0423789970e+02 8.9773876146e+01 0.0000e+00 0.0000e+00
       25  2    1    2    0    0 +4.4043664095e+01 -2.5640088327e+01 +1.4454494808e+01 1.3576210030e+02 1.2500062792e+02 0.0000e+00 0.0000e+00
      -11  1    3    3    0    0 -5.2912515642e+00 +9.6033051443e+00 -4.8808063997e+01 5.0024473251e+01 0.0000000000e+00 0.0000e+00 -1.0000e+00
       11  1    3    3    0    0 -3.8752412531e+01 +1.6036783182e+01 +3.4353569190e+01 5.4213426454e+01 0.0000000000e+00 0.0000e+00 1.0000e+00
        5  1    4    4  501    0 +2.9043327179e+00 -1.2912843724e+01 +1.9560595287e+00 1.4180721083e+01 4.7000000000e+00 0.0000e+00 -1.0000e+00
       -5  1    4    4    0  501 +3.9307718934e+01 -4.3910831503e+01 -9.6448076702e+00 5.9903006653e+01 4.7000000000e+00 0.0000e+00 -1.0000e+00
        5  1    4    4  502    0 +1.8737218811e+01 +3.3628222418e+01 +2.0551599894e+01 4.3890761784e+01 4.7000000000e+00 0.0000e+00 1.0000e+00
       -5  1    4    4    0  502 -1.6905606368e+01 -2.4446355178e+00 +1.5916430552e+00 1.7787610775e+01 4.7000000000e+00 0.0000e+00 1.0000e+00
</event>
<event>
10      1 +4.6527485e-10 2.40000000e+02 7.81860800e-03 1.03012300e-01
      -11 -1    0    0    0    0 +0.0000000000e+00 +0.0000000000e+00 +1.2000000000e+02 1.2000000000e+02 0.0000000000e+00 0.0000e+00 -1.0000e+00
       11 -1    0    0    0    0 -0.0000000000e+00 -0.0000000000e+00 -1.2000000000e+02 1.2000000000e+02 0.0000000000e+00 0.0000e+00 1.0000e+00
       23  2    1    2    0    0 +3.8527333354e+01 -2.1926834590e+01 -2.7840862774e+01 1.0448267585e+02 9.0423306858e+01 0.0000e+00 0.0000e+00
       25  2    1    2    0    0 -3.8527333354e+01 +2.1926834590e+01 +2.7840862774e+01 1.3551732415e+02 1.2499876005e+02 0.0000e+00 0.0000e+00
      -13  1    3    3    0    0 -2.5889981212e+01 -1.8988820758e+01 +4.3663958050e+00 3.2402651948e+01 0.0000000000e+00 0.0000e+00 1.0000e+00
       13  1    3    3    0    0 +6.4417314566e+01 -2.9380138320e+00 -3.2207258579e+01 7.2080023906e+01 0.0000000000e+00 0.0000e+00 -1.0000e+00
        5  1    4    4  501    0 -3.9919118061e+00 -1.2144003000e+00 +6.0792915403e+00 8.7440215913e+00 4.7000000000e+00 0.0000e+00 1.0000e+00
       -5  1    4    4    0  501 +1.7311144153e+01 -1.2364364871e+01 +4.8058106650e+01 5.2765754475e+01 4.7000000000e+00 0.0000e+00 -1.0000e+00
        5  1    4    4  502    0 -2.2064189857e+01 +2.5694240218e+01 -2.3486050894e+00 3.4272852234e+01 4.7000000000e+00 0.0000e+00 1.0000e+00
       -5  1    4    4    0  502 -2.9782375845e+01 +9.8113595423e+00 -2.3947930326e+01 3.9734695845e+01 4.7000000000e+00 0.0000e+00 1.0000e+00
</event>
<event>
10      1 +4.6527485e-10 2.40000000e+02 7.81860800e-03 1.03012300e-01
      -11 -1    0    0    0    0 +0.0000000000e+00 +0.0000000000e+00 +1.2000000000e+02 1.2000000000e+02 0.0000000000e+00 0.0000e+00 -1.0000e+00
       11 -1    0    0    0    0 -0.0000000000e+00 -0.0000000000e+00 -1.2000000000e+02 1.2000000000e+02 0.0000000000e+00 0.0000e+00 1.0000e+00
       23  2    1    2    0    0 -4.7627654876e+01 -1.3299609214e+01 -1.3614529783e+01 1.0489010323e+02 9.1494837122e+01 0.0000e+00 0.0000e+00
       25  2    1    2    0    0 +4.7627654876e+01 +1.3299609214e+01 +1.3614529783e+01 1.3510989677e+02 1.2499622262e+02 0.0000e+00 0.0000e+00
      -13  1    3    3    0    0 +6.6758874682e+00 +1.0811309622e+00 +3.1888411584e+01 3.2597654992e+01 0.0000000000e+00 0.0000e+00 -1.0000e+00
       13  1    3    3    0    0 -5.4303542344e+01 -1.4380740176e+01 -4.5502941367e+01 7.2292448237e+01 0.0000000000e+00 0.0000e+00 1.0000e+00
        5  1    4    4  501    0 -3.0906108271e+00 +4.4657036544e+00 -4.2883789943e+00 8.3650809209e+00 4.7000000000e+00 0.0000e+00 1.0000e+00
       -5  1    4    4    0  502 +7.0756085595e+01 +4.3307626509e+00 -1.4187144322e+00 7.1058299336e+01 4.7000000000e+00 0.0000e+00 1.0000e+00
        5  1    4    4  502    0 +1.4602179794e+01 -4.4733008168e+00 +3.9627444086e+00 1.6462910380e+01 4.7000000000e+00 0.0000e+00 1.0000e+00
       -5  1    4    4    0  501 -3.4639999685e+01 +8.9764437252e+00 +1.5358878801e+01 3.9223606134e+01 4.7000000000e+00 0.0000e+00 1.0000e+00
</event>
<event>
10      1 +4.6527485e-10 2.40000000e+02 7.81860800e-03 1.03012300e-01
      -11 -1    0    0    0    0 +0.0000000000e+00 +0.0000000000e+00 +1.2000000000e+02 1.2000000000e+02 0.0000000000e+00 0.0000e+00 -1.0000e+00
       11 -1    0    0    0    0 -0.0000000000e+00 -0.0000000000e+00 -1.2000000000e+02 1.2000000000e+02 0.0000000000e+00 0.0000e+00 1.0000e+00
       23  2    1    2    0    0 +4.1398219815e+01 +7.4474254171e+00 +2.8133125536e+01 1.0514832241e+02 9.2170603796e+01 0.0000e+00 0.0000e+00
       25  2    1    2    0    0 -4.1398219815e+01 -7.4474254171e+00 -2.8133125536e+01 1.3485167759e+02 1.2499690175e+02 0.0000e+00 0.0000e+00
      -13  1    3    3    0    0 +3.5800164980e+01 -3.7581651221e+01 +2.9595853606e+01 5.9749032392e+01 0.0000000000e+00 0.0000e+00 -1.0000e+00
       13  1    3    3    0    0 +5.5980548353e+00 +4.5029076638e+01 -1.4627280700e+00 4.5399290019e+01 0.0000000000e+00 0.0000e+00 1.0000e+00
        5  1    4    4  501    0 +1.1615799502e+01 -4.5955941260e+01 -2.4690660589e+01 5.3652530746e+01 4.7000000000e+00 0.0000e+00 1.0000e+00
       -5  1    4    4    0  501 -2.5017342081e+00 -7.9832813084e+00 -3.1548484419e-01 9.6010929161e+00 4.7000000000e+00 0.0000e+00 1.0000e+00
        5  1    4    4  502    0 -3.2767553675e+01 +3.3226023583e+01 -9.9475323404e+00 4.7945016598e+01 4.7000000000e+00 0.0000e+00 -1.0000e+00
       -5  1    4    4    0  502 -1.7744731435e+01 +1.3265773568e+01 +6.8205522382e+00 2.3653037329e+01 4.7000000000e+00 0.0000e+00 -1.0000e+00
</event>
<event>
10      1 +4.6527485e-10 2.40000000e+02 7.81860800e-03 1.03012300e-01
      -11 -1    0    0    0    0 +0.0000000000e+00 +0.0000000000e+00 +1.2000000000e+02 1.2000000000e+02 0.0000000000e+00 0.0000e+00 1.0000e+00
       11 -1    0    0    0    0 -0.0000000000e+00 -0.0000000000e+00 -1.2000000000e+02 1.2000000000e+02 0.0000000000e+00 0.0000e+00 -1.0000e+00
       23  2    1    2    0    0 +2.0225347613e-01 -1.8141108458e+01 -4.7750339657e+01 1.0495991638e+02 9.1691593867e+01 0.0000e+00 0.0000e+00
       25  2    1    2    0    0 -2.0225347613e-01 +1.8141108458e+01 +4.7750339657e+01 1.3504008362e+02 1.2500635394e+02 0.0000e+00 0.0000e+00
      -11  1    3    3    0    0 -3.5719992127e+01 +6.1977267260e+00 +5.0653197947e+00 3.6605834490e+01 0.0000000000e+00 0.0000e+00 1.0000e+00
       11  1    3    3    0    0 +3.5922245603e+01 -2.4338835184e+01 -5.2815659451e+01 6.8354081887e+01 0.0000000000e+00 0.0000e+00 -1.0000e+00
        5  1    4    4  501    0 +2.4135311458e+01 +3.2608382890e+00 -2.1685961931e+01 3.2947189112e+01 4.7000000000e+00 0.0000e+00 1.0000e+00
       -5  1    4    4    0  502 -1.9556336940e+01 +1.1309223430e+01 +3.4528959473e+01 4.1529361798e+01 4.7000000000e+00 0.0000e+00 -1.0000e+00
        5  1    4    4  502    0 -1.5491448104e+00 +1.5760571796e+00 +4.6872313095e+01 4.7159172392e+01 4.7000000000e+00 0.0000e+00 -1.0000e+00
       -5  1    4    4    0  501 -3.2320831839e+00 +1.9949895597e+00 -1.1964970980e+01 1.3404360321e+01 4.7000000000e+00 0.0000e+00 1.0000e+00
</event>
<event>
10      1 +4.6527485e-10 2.40000000e+02 7.81860800e-03 1.03012300e-01
      -11 -1    0    0    0    0 +0.0000000000e+00 +0.0000000000e+00 +1.2000000000e+02 1.2000000000e+02 0.0000000000e+00 0.0000e+00 1.0000e+00
       11 -1    0    0    0    0 -0.0000000000e+00 -0.0000000000e+00 -1.2000000000e+02 1.2000000000e+02 0.0000000000e+00 0.0000e+00 -1.0000e+00
       23  2    1    2    0    0 +2.5610397648e+01 -1.0122170659e+01 -4.4755509548e+01 1.0439328101e+02 9.0202830773e+01 0.0000e+00 0.0000e+00
       25  2    1    2    0    0 -2.5610397648e+01 +1.0122170659e+01 +4.4755509548e+01 1.3560671899e+02 1.2501110268e+02 0.0000e+00 0.0000e+00
      -13  1    3    3    0    0 +5.7270912910e+01 +2.8258310344e+00 -1.5540094570e+01 5.9409067707e+01 0.0000000000e+00 0.0000e+00 -1.0000e+00
       13  1    3    3    0    0 -3.1660515262e+01 -1.2948001693e+01 -2.9215414978e+01 4.4984213307e+01 0.0000000000e+00 0.0000e+00 1.0000e+00
        5  1    4    4  501    0 -4.6097675528e+00 +3.6999373057e+01 +1.5705092970e+01 4.0730130232e+01 4.7000000000e+00 0.0000e+00 1.0000e+00
       -5  1    4    4    0  502 -1.3070697385e+01 -1.4871455685e+01 +5.0336586555e+00 2.0962610614e+01 4.7000000000e+00 0.0000e+00 -1.0000e+00
        5  1    4    4  502    0 +9.9638594255e+00 -3.4601153737e+01 +2.5972919546e+01 4.4645278410e+01 4.7000000000e+00 0.0000e+00 -1.0000e+00
       -5  1    4    4    0  501 -1.7893792136e+01 +2.2595407024e+01 -1.9561616236e+00 2.9268699730e+01 4.7000000000e+00 0.0000e+00 1.0000e+00
</event>
<event>
10      1 +4.6527485e-10 2.40000000e+02 7.81860800e-03 1.03012300e-01
      -11 -1    0    0    0    0 +0.0000000000e+00 +0.0000000000e+00 +1.2000000000e+02 1.2000000000e+02 0.0000000000e+00 0.0000e+00 -1.0000e+00
       11 -1    0    0    0    0 -0.0000000000e+00 -0.0000000000e+00 -1.2000000000e+02 1.2000000000e+02 0.0000000000e+00 0.0000e+00 1.0000e+00
       23  2    1    2    0    0 -3.4733037766e+01 +1.9278350372e+01 -2.9254856520e+01 1.0561499698e+02 9.3384379060e+01 0.0000e+00 0.0000e+00
       25  2    1    2    0    0 +3.4733037766e+01 -1.9278350372e+01 +2.9254856520e+01 1.3438500302e+02 1.2500177479e+02 0.0000e+00 0.0000e+00
      -11  1    3    3    0    0 -2.3418830213e+01 +1.0780421728e+01 +3.2940756176e+01 4.1830043254e+01 0.0000000000e+00 0.0000e+00 -1.0000e+00
       11  1    3    3    0    0 -1.1314207553e+01 +8.4979286435e+00 -6.2195612696e+01 6.3784953730e+01 0.0000000000e+00 0.0000e+00 1.0000e+00
        5  1    4    4  501    0 -1.6847041128e-01 +5.1569645206e+00 -3.8275141047e+00 7.9600583897e+00 4.7000000000e+00 0.0000e+00 1.0000e+00
       -5  1    4    4    0  502 -3.2469874252e+00 -5.6927430283e+01 +1.9011891971e+01 6.0289445862e+01 4.7000000000e+00 0.0000e+00 1.0000e+00
        5  1    4    4  502    0 +3.9419885408e+00 -8.1334947860e+00 +6.9815613277e+00 1.2350109702e+01 4.7000000000e+00 0.0000e+00 1.0000e+00
       -5  1    4    4    0  501 +3.4206507062e+01 +4.0625610177e+01 +7.0889173251e+00 5.3785389061e+01 4.7000000000e+00 0.0000e+00 -1.0000e+00
</event>
<event>
10      1 +4.6527485e-10 2.40000000e+02 7.81860800e-03 1.03012300e-01
      -11 -1    0    0    0    0 +0.0000000000e+00 +0.0000000000e+00 +1.2000000000e+02 1.2000000000e+02 0.0000000000e+00 0.0000e+00 1.0000e+00
       11 -1    0    0    0    0 -0.0000000000e+00 -0.0000000000e+00 -1.2000000000e+02 1.2000000000e+02 0.0000000000e+00 0.0000e+00 -1.0000e+00
       23  2    1    2    0    0 -2.7541275873e+01 -9.0592605161e+00 -4.2417736013e+01 1.0484898445e+02 9.1397227163e+01 0.0000e+00 0.0000e+00
       25  2    1    2    0    0 +2.7541275873e+01 +9.0592605161e+00 +4.2417736013e+01 1.3515101555e+02 1.2500376234e+02 0.0000e+00 0.0000e+00
      -13  1    3    3    0    0 +3.6673509371e+00 +3.0150640307e+01 +1.0339158567e+01 3.2084400784e+01 0.0000000000e+00 0.0000e+00 1.0000e+00
       13  1    3    3    0    0 -3.1208626810e+01 -3.9209900823e+01 -5.2756894579e+01 7.2764583662e+01 0.0000000000e+00 0.0000e+00 -1.0000e+00
        5  1    4    4  501    0 -1.0212698785e+00 -1.0440129984e+01 +1.5064636207e+01 1.8949210282e+01 4.7000000000e+00 0.0000e+00 -1.0000e+00
       -5  1    4    4    0  501 -1.3907539251e+01 -3.5808450328e+01 +2.0905527758e+01 4.3986314392e+01 4.7000000000e+00 0.0000e+00 -1.0000e+00
        5  1    4    4  502    0 +2.8046268440e+01 +4.0301260104e+01 +1.0665339699e+01 5.0464088324e+01 4.7000000000e+00 0.0000e+00 -1.0000e+00
       -5  1    4    4    0  502 +1.4423816562e+01 +1.5006580724e+01 -4.2177676519e+00 2.1751402557e+01 4.7000000000e+00 0.0000e+00 -1.0000e+00
</event>
<event>
10      1 +4.6527485e-10 2.40000000e+02 7.81860800e-03 1.03012300e-01
      -11 -1    0    0    0    0 +0.0000000000e+00 +0.0000000000e+00 +1.2000000000e+02 1.2000000000e+02 0.0000000000e+00 0.0000e+00 1.0000e+00
       11 -1    0    0    0    0 -0.0000000000e+00 -0.0000000000e+00 -1.2000000000e+02 1.2000000000e+02 0.0000000000e+00 0.0000e+00 -1.0000e+00
       23  2    1    2    0    0 -1.0744799307e+01 -1.2216454215e+01 -4.8018044895e+01 1.0511016223e+02 9.2074541013e+01 0.0000e+00 0.0000e+00
       25  2    1    2    0    0 +1.0744799307e+01 +1.2216454215e+01 +4.8018044895e+01 1.3488983777e+02 1.2499937293e+02 0.0000e+00 0.0000e+00
      -13  1    3    3    0    0 -1.7583854636e+01 +2.6376742326e+01 +1.1605121376e+01 3.3758011223e+01 0.0000000000e+00 0.0000e+00 1.0000e+00
       13  1    3    3    0    0 +6.8390553291e+00 -3.8593196541e+01 -5.9623166271e+01 7.1352151007e+01 0.0000000000e+00 0.0000e+00 -1.0000e+00
        5  1    4    4  501    0 -2.8504351511e+01 +6.1375971357e-01 +4.5618747744e+01 5.4000323164e+01 4.7000000000e+00 0.0000e+00 1.0000e+00
       -5  1    4    4    0  502 +5.6501021735e+00 +2.1890024716e+00 +3.0281058241e+00 8.2446838189e+00 4.7000000000e+00 0.0000e+00 -1.0000e+00
        5  1    4    4  502    0 +3.8265833280e+01 -9.9400159941e-01 -2.4558981797e+01 4.5721938089e+01 4.7000000000e+00 0.0000e+00 1.0000e+00
       -5  1    4    4    0  501 -4.6667846348e+00 +1.0407693629e+01 +2.3930173124e+01 2.6922892698e+01 4.7000000000e+00 0.0000e+00 1.0000e+00
</event>
<event>
10      1 +4.6527485e-10 2.40000000e+02 7.81860800e-03 1.03012300e-01
      -11 -1    0    0    0    0 +0.0000000000e+00 +0.0000000000e+00 +1.2000000000e+02 1.2000000000e+02 0.0000000000e+00 0.0000e+00 -1.0000e+00
       11 -1    0    0    0    0 -0.0000000000e+00 -0.0000000000e+00 -1.2000000000e+02 1.2000000000e+02 0.0000000000e+00 0.0000e+00 1.0000e+00
       23  2    1    2    0    0 -2.6639126965e+01 +2.7036399229e+01 -3.3349242809e+01 1.0517290001e+02 9.2241839379e+01 0.0000e+00 0.0000e+00
       25  2    1    2    0    0 +2.6639126965e+01 -2.7036399229e+01 +3.3349242809e+01 1.3482709999e+02 1.2500225969e+02 0.0000e+00 0.0000e+00
      -11  1    3    3    0    0 +9.5516427219e+00 +2.3317084355e+01 +2.5587443870e+01 3.5911524408e+01 0.0000000000e+00 0.0000e+00 -1.0000e+00
       11  1    3    3    0    0 -3.6190769687e+01 +3.7193148737e+00 -5.8936686679e+01 6.9261375602e+01 0.0000000000e+00 0.0000e+00 1.0000e+00
        5  1    4    4  501    0 -5.1504208164e+00 -2.4872474005e+01 -7.1253724957e+00 2.6796039463e+01 4.7000000000e+00 0.0000e+00 1.0000e+00
       -5  1    4    4    0  502 +4.4738076171e+00 -1.2655526184e-01 +2.1170674263e+00 6.8266349922e+00 4.7000000000e+00 0.0000e+00 1.0000e+00
        5  1    4    4  502    0 +4.9702029375e+01 +2.6391624125e+01 +2.9249767253e+01 6.3595978114e+01 4.7000000000e+00 0.0000e+00 -1.0000e+00
       -5  1    4    4    0  501 -2.2386289210e+01 -2.8428994087e+01 +9.1077806252e+00 3.7608447420e+01 4.7000000000e+00 0.0000e+00 1.0000e+00
</event>
<event>
10      1 +4.6527485e-10 2.40000000e+02 7.81860800e-03 1.03012300e-01
      -11 -1    0    0    0    0 +0.0000000000e+00 +0.0000000000e+00 +1.2000000000e+02 1.2000000000e+02 0.0000000000e+00 0.0000e+00 -1.0000e+00
       11 -1    0    0    0    0 -0.0000000000e+00 -0.0000000000e+00 -1.2000000000e+02 1.2000000000e+02 0.0000000000e+00 0.0000e+00 1.0000e+00
       23  2    1    2    0    0 -2.5839478183e+01 -2.1083226021e+01 -3.9127919087e+01 1.0484020723e+02 9.1368998829e+01 0.0000e+00 0.0000e+00
       25  2    1    2    0    0 +2.5839478183e+01 +2.1083226021e+01 +3.9127919087e+01 1.3515979277e+02 1.2499997791e+02 0.0000e+00 0.0000e+00
      -13  1    3    3    0    0 +2.9120011484e+01 +1.3694818359e+01 -1.1431787224e+01 3.4149800554e+01 0.0000000000e+00 0.0000e+00 -1.0000e+00
       13  1    3    3    0    0 -5.4959489667e+01 -3.4778044381e+01 -2.7696131863e+01 7.0690406673e+01 0.0000000000e+00 0.0000e+00 1.0000e+00
        5  1    4    4  501    0 -1.3392743699e+01 +2.8890158482e+01 +4.6676432825e+01 5.6699084845e+01 4.7000000000e+00 0.0000e+00 1.0000e+00
       -5  1    4    4    0  502 +8.2019559165e+00 -2.5625544512e+01 +6.4175810439e+00 2.8057369065e+01 4.7000000000e+00 0.0000e+00 1.0000e+00
        5  1    4    4  502    0 +2.7269146674e+01 +5.3746215726e+00 -2.0752782508e+01 3.5003726933e+01 4.7000000000e+00 0.0000e+00 1.0000e+00
       -5  1    4    4    0  501 +3.7611192915e+00 +1.2443990478e+01 +6.7866877254e+00 1.5399611931e+01 4.7000000000e+00 0.0000e+00 1.0000e+00
</event>
<event>
10      1 +4.6527485e-10 2.40000000e+02 7.81860800e-03 1.03012300e-01
      -11 -1    0    0    0    0 +0.0000000000e+00 +0.0000000000e+00 +1.2000000000e+02 1.2000000000e+02 0.0000000000e+00 0.0000e+00 -1.0000e+00
       11 -1    0    0    0    0 -0.0000000000e+00 -0.0000000000e+00 -1.2000000000e+02 1.2000000000e+02 0.0000000000e+00 0.0000e+00 1.0000e+00
       23  2    1    2    0    0 +2.0641669013e+00 +1.1039011785e+01 -4.9499019225e+01 1.0508490281e+02 9.2013930077e+01 0.0000e+00 0.0000e+00
       25  2    1    2    0    0 -2.0641669013e+00 -1.1039011785e+01 +4.9499019225e+01 1.3491509719e+02 1.2500323988e+02 0.0000e+00 0.0000e+00
      -11  1    3    3    0    0 +3.3177786377e+01 +3.7314435507e+01 -1.6241962504e+01 5.2506513425e+01 0.0000000000e+00 0.0000e+00 -1.0000e+00
       11  1    3    3    0    0 -3.1113619476e+01 -2.6275423721e+01 -3.3257056720e+01 5.2578389385e+01 0.0000000000e+00 0.0000e+00 1.0000e+00
        5  1    4    4  501    0 +3.9162598188e+01 -1.6478850252e+01 -6.8723484518e+00 4.3296429133e+01 4.7000000000e+00 0.0000e+00 1.0000e+00
       -5  1    4    4    0  502 -3.0377204572e+01 +4.7358973130e+00 +4.4416156340e+01 5.4222580398e+01 4.7000000000e+00 0.0000e+00 -1.0000e+00
        5  1    4    4  502    0 -1.7870425264e+01 -9.2216630058e+00 +1.2863274722e+01 2.4329919940e+01 4.7000000000e+00 0.0000e+00 -1.0000e+00
       -5  1    4    4    0  501 +7.0208647474e+00 +9.9256041601e+00 -9.0806338560e-01 1.3066167719e+01 4.7000000000e+00 0.0000e+00 1.0000e+00
</event>
<event>
10      1 +4.6527485e-10 2.40000000e+02 7.81860800e-03 1.03012300e-01
      -11 -1    0    0    0    0 +0.0000000000e+00 +0.0000000000e+00 +1.2000000000e+02 1.2000000000e+02 0.0000000000e+00 0.0000e+00 1.0000e+00
       11 -1    0    0    0    0 -0.0000000000e+00 -0.0000000000e+00 -1.2000000000e+02 1.2000000000e+02 0.0000000000e+00 0.0000e+00 -1.0000e+00
       23  2    1    2    0    0 -1.8985867092e+01 +4.6470429840e+01 +7.1958730522e+00 1.0510454765e+02 9.2060965393e+01 0.0000e+00 0.0000e+00
       25  2    1    2    0    0 +1.8985867092e+01 -4.6470429840e+01 -7.1958730522e+00 1.3489545235e+02 1.2500015391e+02 0.0000e+00 0.0000e+00
      -11  1    3    3    0    0 +1.1086890239e+01 +1.5716969811e+01 +4.4302425222e+01 4.8297486019e+01 0.0000000000e+00 0.0000e+00 1.0000e+00
       11  1    3    3    0    0 -3.0072757331e+01 +3.0753460029e+01 -3.7106552170e+01 5.6807061632e+01 0.0000000000e+00 0.0000e+00 -1.0000e+00
        5  1    4    4  501    0 +2.6248819490e-01 +1.0015897319e+00 +2.4989941990e+00 5.4228271271e+00 4.7000000000e+00 0.0000e+00 -1.0000e+00
       -5  1    4    4    0  501 +1.4108384564e+01 +1.2663648058e+01 -4.9145376331e+01 5.2884520531e+01 4.7000000000e+00 0.0000e+00 -1.0000e+00
        5  1    4    4  502    0 -6.9086520603e+00 -2.3116980358e+01 +6.3360392705e+00 2.5384240146e+01 4.7000000000e+00 0.0000e+00 -1.0000e+00
       -5  1    4    4    0  502 +1.1523646393e+01 -3.7018687273e+01 +3.3114469809e+01 5.1203864545e+01 4.7000000000e+00 0.0000e+00 -1.0000e+00
</event>
<event>
10      1 +4.6527485e-10 2.40000000e+02 7.81860800e-03 1.03012300e-01
      -11 -1    0    0    0    0 +0.0000000000e+00 +0.0000000000e+00 +1.2000000000e+02 1.2000000000e+02 0.0000000000e+00 0.0000e+00 1.0000e+00
       11 -1    0    0    0    0 -0.0000000000e+00 -0.0000000000e+00 -1.2000000000e+02 1.2000000000e+02 0.0000000000e+00 0.0000e+00 -1.0000e+00
       23  2    1    2    0    0 -4.9517874356e+00 -8.9874757926e+00 +4.9723042415e+01 1.0507414538e+02 9.1994022419e+01 0.0000e+00 0.0000e+00
       25  2    1    2    0    0 +4.9517874356e+00 +8.9874757926e+00 -4.9723042415e+01 1.3492585462e+02 1.2500924117e+02 0.0000e+00 0.0000e+00
      -13  1    3    3    0    0 -3.7950766233e+01 +2.2878181365e+01 +1.2623068545e+01 4.6076172799e+01 0.0000000000e+00 0.0000e+00 -1.0000e+00
       13  1    3    3    0    0 +3.2998978798e+01 -3.1865657158e+01 +3.7099973870e+01 5.8997972583e+01 0.0000000000e+00 0.0000e+00 1.0000e+00
        5  1    4    4  501    0 +3.1058917945e+01 +1.0390085811e+01 -6.5241253746e+01 7.3151359915e+01 4.7000000000e+00 0.0000e+00 1.0000e+00
       -5  1    4    4    0  501 +4.2971758290e+00 +6.0039096552e+00 -7.3240268552e+00 1.1412450247e+01 4.7000000000e+00 0.0000e+00 1.0000e+00
        5  1    4    4  502    0 +4.2270280883e+00 -4.4014539437e+00 +1.0819165286e+01 1.3280997732e+01 4.7000000000e+00 0.0000e+00 1.0000e+00
       -5  1    4    4    0  502 -3.4631334427e+01 -3.0050657295e+00 +1.2023072900e+01 3.7081046724e+01 4.7000000000e+00 0.0000e+00 1.0000e+00
</event>
<event>
10      1 +4.6527485e-10 2.40000000e+02 7.81860800e-03 1.03012300e-01
      -11 -1    0    0    0    0 +0.0000000000e+00 +0.0000000000e+00 +1.2000000000e+02 1.2000000000e+02 0.0000000000e+00 0.0000e+00 1.0000e+00
       11 -1    0    0    0    0 -0.0000000000e+00 -0.0000000000e+00 -1.2000000000e+02 1.2000000000e+02 0.0000000000e+00 0.0000e+00 -1.0000e+00
       23  2    1    2    0    0 +4.6637403938e+01 +2.3359083640e+00 +2.0048081845e+01 1.0506394189e+02 9.1956524436e+01 0.0000e+00 0.0000e+00
       25  2    1    2    0    0 -4.6637403938e+01 -2.3359083640e+00 -2.0048081845e+01 1.3493605811e+02 1.2500124111e+02 0.0000e+00 0.0000e+00
      -11  1    3    3    0    0 +1.1682835528e+01 +4.3729242423e+01 -4.6904923195e+00 4.5505340423e+01 0.0000000000e+00 0.0000e+00 -1.0000e+00
       11  1    3    3    0    0 +3.4954568410e+01 -4.1393334059e+01 +2.4738574165e+01 5.9558601469e+01 0.0000000000e+00 0.0000e+00 1.0000e+00
        5  1    4    4  501    0 +1.7520154660e+01 -5.2024948209e+00 -6.6138231291e+00 1.9996360370e+01 4.7000000000e+00 0.0000e+00 -1.0000e+00
       -5  1    4    4    0  501 +8.0165008904e+00 -3.0503949157e+01 -3.1378406670e+00 3.2042023107e+01 4.7000000000e+00 0.0000e+00 -1.0000e+00
        5  1    4    4  502    0 -5.9264604804e+01 +2.4503758851e+01 -1.4768576045e+00 6.4319504731e+01 4.7000000000e+00 0.0000e+00 -1.0000e+00
       -5  1    4    4    0  502 -1.2909454684e+01 +8.8667767635e+00 -8.8195604447e+00 1.8578169900e+01 4.7000000000e+00 0.0000e+00 -1.0000e+00
</event>
<event>
10      1 +4.6527485e-10 2.40000000e+02 7.81860800e-03 1.03012300e-01
      -11 -1    0    0    0    0 +0.0000000000e+00 +0.0000000000e+00 +1.2000000000e+02 1.2000000000e+02 0.0000000000e+00 0.0000e+00 1.0000e+00
       11 -1    0    0    0    0 -0.0000000000e+00 -0.0000000000e+00 -1.2000000000e+02 1.2000000000e+02 0.0000000000e+00 0.0000e+00 -1.0000e+00
       23  2    1    2    0    0 -1.8901817262e+01 +6.0808905226e+00 +4.7769432750e+01 1.0471768370e+02 9.1047342904e+01 0.0000e+00 0.0000e+00
       25  2    1    2    0    0 +1.8901817262e+01 -6.0808905226e+00 -4.7769432750e+01 1.3528231630e+02 1.2500052189e+02 0.0000e+00 0.0000e+00
      -11  1    3    3    0    0 -1.6697218273e+01 +4.6977935351e+01 +1.4418829374e+01 5.1900155572e+01 0.0000000000e+00 0.0000e+00 -1.0000e+00
       11  1    3    3    0    0 -2.2045989892e+00 -4.0897044829e+01 +3.3350603376e+01 5.2817528132e+01 0.0000000000e+00 0.0000e+00 1.0000e+00
        5  1    4    4  501    0 +3.7000488734e+01 +2.0439323246e+01 -4.9011275761e+01 6.4892197166e+01 4.7000000000e+00 0.0000e+00 1.0000e+00
       -5  1    4    4    0  502 -1.5694782538e+01 -8.0717478690e+00 -9.0435948689e+00 2.0380282646e+01 4.7000000000e+00 0.0000e+00 1.0000e+00
        5  1    4    4  502    0 -1.7788924522e+01 -2.4322098187e+01 +1.2053575727e+01 3.2793124030e+01 4.7000000000e+00 0.0000e+00 1.0000e+00
       -5  1    4    4    0  501 +1.5385035588e+01 +5.8736322868e+00 -1.7681378473e+00 1.7216712454e+01 4.7000000000e+00 0.0000e+00 1.0000e+00
</event>
<event>
10      1 +4.6527485e-10 2.40000000e+02 7.81860800e-03 1.03012300e-01
      -11 -1    0    0    0    0 +0.0000000000e+00 +0.0000000000e+00 +1.2000000000e+02 1.2000000000e+02 0.0000000000e+00 0.0000e+00 -1.0000e+00
       11 -1    0    0    0    0 -0.0000000000e+00 -0.0000000000e+00 -1.2000000000e+02 1.2000000000e+02 0.0000000000e+00 0.0000e+00 1.0000e+00
       23  2    1    2    0    0 +1.4423149126e+01 +1.9232711353e+01 -4.9637124412e+01 1.0338000147e+02 8.7439442857e+01 0.0000e+00 0.0000e+00
       25  2    1    2    0    0 -1.4423149126e+01 -1.9232711353e+01 +4.9637124412e+01 1.3661999853e+02 1.2499302165e+02 0.0000e+00 0.0000e+00
      -11  1    3    3    0    0 +3.2158091003e+01 -1.7238007895e+01 -5.1111883050e+01 6.2799015295e+01 0.0000000000e+00 0.0000e+00 1.0000e+00
       11  1    3    3    0    0 -1.7734941877e+01 +3.6470719248e+01 +1.4747586381e+00 4.0580986174e+01 0.0000000000e+00 0.0000e+00 -1.0000e+00
        5  1    4    4  501    0 +3.4004048723e+00 +2.1913365670e+00 +3.3721484861e+00 7.0587601360e+00 4.7000000000e+00 0.0000e+00 1.0000e+00
       -5  1    4    4    0  501 -6.8033972039e+00 +3.8946154460e+01 -1.2181884888e+01 4.1636251995e+01 4.7000000000e+00 0.0000e+00 1.0000e+00
        5  1    4    4  502    0 -6.9025766183e+00 -4.9391141818e+01 +5.5859602295e+01 7.5030098111e+01 4.7000000000e+00 0.0000e+00 1.0000e+00
       -5  1    4    4    0  502 -4.1175801759e+00 -1.0979060562e+01 +2.5872585187e+00 1.2894888289e+01 4.7000000000e+00 0.0000e+00 1.0000e+00
</event>
<event>
10      1 +4.6527485e-10 2.40000000e+02 7.81860800e-03 1.03012300e-01
      -11 -1    0    0    0    0 +0.0000000000e+00 +0.0000000000e+00 +1.2000000000e+02 1.2000000000e+02 0.0000000000e+00 0.0000e+00 1.0000e+00
       11 -1    0    0    0    0 -0.0000000000e+00 -0.0000000000e+00 -1.2000000000e+02 1.2000000000e+02 0.0000000000e+00 0.0000e+00 -1.0000e+00
       23  2    1    2    0    0 +1.5091626210e+01 -4.1597863912e+01 -2.0364548680e+01 1.0584454573e+02 9.3969215997e+01 0.0000e+00 0.0000e+00
       25  2    1    2    0    0 -1.5091626210e+01 +4.1597863912e+01 +2.0364548680e+01 1.3415545427e+02 1.2499932641e+02 0.0000e+00 0.0000e+00
      -13  1    3    3    0    0 +9.3552392014e+00 -4.1905860467e+01 +3.1758290940e+01 5.3406092212e+01 0.0000000000e+00 0.0000e+00 1.0000e+00
       13  1    3    3    0    0 +5.7363870087e+00 +3.0799655513e-01 -5.2122839620e+01 5.2438453522e+01 0.0000000000e+00 0.0000e+00 -1.0000e+00
        5  1    4    4  501    0 +1.5407673516e+01 +1.4822949692e+01 -1.6348869991e+01 2.7322001953e+01 4.7000000000e+00 0.0000e+00 1.0000e+00
       -5  1    4    4    0  501 -5.1513854531e-01 +2.1312418589e+01 -2.6155672161e+01 3.4068955664e+01 4.7000000000e+00 0.0000e+00 1.0000e+00
        5  1    4    4  502    0 -1.7779214209e+01 +1.1908933931e+01 +4.0866913036e+01 4.6369362152e+01 4.7000000000e+00 0.0000e+00 1.0000e+00
       -5  1    4    4    0  502 -1.2204946972e+01 -6.4464382995e+00 +2.2002177796e+01 2.6395134497e+01 4.7000000000e+00 0.0000e+00 1.0000e+00
</event>
<event>
10      1 +4.6527485e-10 2.40000000e+02 7.81860800e-03 1.03012300e-01
      -11 -1    0    0    0    0 +0.0000000000e+00 +0.0000000000e+00 +1.2000000000e+02 1.2000000000e+02 0.0000000000e+00 0.0000e+00 1.0000e+00
       11 -1    0    0    0    0 -0.0000000000e+00 -0.0000000000e+00 -1.2000000000e+02 1.2000000000e+02 0.0000000000e+00 0.0000e+00 -1.0000e+00
       23  2    1    2    0    0 -1.3648463705e+00 +4.1015067821e+01 +3.1869234356e+01 1.0463148955e+02 9.0818510850e+01 0.0000e+00 0.0000e+00
       25  2    1    2    0    0 +1.3648463705e+00 -4.1015067821e+01 -3.1869234356e+01 1.3536851045e+02 1.2499954772e+02 0.0000e+00 0.0000e+00
      -11  1    3    3    0    0 +5.0914336770e+00 -1.2384774181e+01 -2.3745459622e+01 2.7260817689e+01 0.0000000000e+00 0.0000e+00 -1.0000e+00
       11  1    3    3    0    0 -6.4562800475e+00 +5.3399842002e+01 +5.5614693978e+01 7.7370671861e+01 0.0000000000e+00 0.0000e+00 1.0000e+00
        5  1    4    4  501    0 +3.1975969398e+01 -2.1912165063e+01 +5.7421839008e+00 3.9467306377e+01 4.7000000000e+00 0.0000e+00 1.0000e+00
       -5  1    4    4    0  502 -4.4879730923e+00 -6.9371496365e-01 +2.5194797895e+00 7.0043501724e+00 4.7000000000e+00 0.0000e+00 1.0000e+00
        5  1    4    4  502    0 -5.1030556238e+01 -1.5797381068e+01 -3.0228919040e+01 6.1559341005e+01 4.7000000000e+00 0.0000e+00 -1.0000e+00
       -5  1    4    4    0  501 +2.4907406303e+01 -2.6118067264e+00 -9.9019790058e+00 2.7337512896e+01 4.7000000000e+00 0.0000e+00 1.0000e+00
</event>
<event>
10      1 +4.6527485e-10 2.40000000e+02 7.81860800e-03 1.03012300e-01
      -11 -1    0    0    0    0 +0.0000000000e+00 +0.0000000000e+00 +1.2000000000e+02 1.2000000000e+02 0.0000000000e+00 0.0000e+00 1.0000e+00
       11 -1    0    0    0    0 -0.0000000000e+00 -0.0000000000e+00 -1.2000000000e+02 1.2000000000e+02 0.0000000000e+00 0.0000e+00 -1.0000e+00
       23  2    1    2    0    0 -9.7998015140e+00 +3.4499649664e+01 +3.5200951643e+01 1.0527584077e+02 9.2507479244e+01 0.0000e+00 0.0000e+00
       25  2    1    2    0    0 +9.7998015140e+00 -3.4499649664e+01 -3.5200951643e+01 1.3472415923e+02 1.2500092059e+02 0.0000e+00 0.0000e+00
      -13  1    3    3    0    0 -1.2125497292e+01 +3.0347471842e+01 +6.6245895786e+01 7.3868230250e+01 0.0000000000e+00 0.0000e+00 1.0000e+00
       13  1    3    3    0    0 +2.3256957781e+00 +4.1521778220e+00 -3.1044944144e+01 3.1407610517e+01 0.0000000000e+00 0.0000e+00 -1.0000e+00
        5  1    4    4  501    0 -1.6337338763e+01 +1.8693997967e+01 -4.2784706304e+01 4.9688985614e+01 4.7000000000e+00 0.0000e+00 -1.0000e+00
       -5  1    4    4    0  501 +2.1180040348e-01 +1.0504638560e+01 -3.5407791240e+00 1.2042400404e+01 4.7000000000e+00 0.0000e+00 -1.0000e+00
        5  1    4    4  502    0 +5.3221701467e-01 -1.8109476850e+00 +1.1758762028e+00 5.1995645311e+00 4.7000000000e+00 0.0000e+00 -1.0000e+00
       -5  1    4    4    0  502 +2.5393122859e+01 -6.1887338506e+01 +9.9486575823e+00 6.7793208683e+01 4.7000000000e+00 0.0000e+00 1.0000e+00
</event>
<event>
10      1 +4.6527485e-10 2.40000000e+02 7.81860800e-03 1.03012300e-01
      -11 -1    0    0    0    0 +0.0000000000e+00 +0.0000000000e+00 +1.2000000000e+02 1.2000000000e+02 0.0000000000e+00 0.0000e+00 -1.0000e+00
       11 -1    0    0    0    0 -0.0000000000e+00 -0.0000000000e+00 -1.2000000000e+02 1.2000000000e+02 0.0000000000e+00 0.0000e+00 1.0000e+00
       23  2    1    2    0    0 -3.1320171290e+01 +1.7686269343e+01 +3.8576914027e+01 1.0432510904e+02 9.0009959602e+01 0.0000e+00 0.0000e+00
       25  2    1    2    0    0 +3.1320171290e+01 -1.7686269343e+01 -3.8576914027e+01 1.3567489096e+02 1.2500296192e+02 0.0000e+00 0.0000e+00
      -11  1    3    3    0    0 -4.6290665717e+01 +4.4914770100e+01 +1.7677525830e+01 6.6877927787e+01 0.0000000000e+00 0.0000e+00 1.0000e+00
       11  1    3    3    0    0 +1.4970494427e+01 -2.7228500756e+01 +2.0899388196e+01 3.7447181253e+01 0.0000000000e+00 0.0000e+00 -1.0000e+00
        5  1    4    4  501    0 +3.9143419915e+01 -7.0319045456e+00 -2.1191794386e+01 4.5308245977e+01 4.7000000000e+00 0.0000e+00 -1.0000e+00
       -5  1    4    4    0  502 -3.6653229049e+01 -1.8110184067e+01 -9.4748853462e+00 4.2229153662e+01 4.7000000000e+00 0.0000e+00 -1.0000e+00
        5  1    4    4  502    0 -6.0975570405e+00 +1.1001176309e+00 +5.8940837898e+00 9.7581086480e+00 4.7000000000e+00 0.0000e+00 -1.0000e+00
       -5  1    4    4    0  501 +3.4927537464e+01 +6.3557016384e+00 -1.3804318084e+01 3.8379382674e+01 4.7000000000e+00 0.0000e+00 -1.0000e+00
</event>
<event>
10      1 +4.6527485e-10 2.40000000e+02 7.81860800e-03 1.03012300e-01
      -11 -1    0    0    0    0 +0.0000000000e+00 +0.0000000000e+00 +1.2000000000e+02 1.2000000000e+02 0.0000000000e+00 0.0000e+00 -1.0000e+00
       11 -1    0    0    0    0 -0.0000000000e+00 -0.0000000000e+00 -1.2000000000e+02 1.2000000000e+02 0.0000000000e+00 0.0000e+00 1.0000e+00
       23  2    1    2    0    0 +4.0462235729e+00 +9.1499407012e+00 -5.0892625593e+01 1.0466565704e+02 9.0910654403e+01 0.0000e+00 0.0000e+00
       25  2    1    2    0    0 -4.0462235729e+00 -9.1499407012e+00 +5.0892625593e+01 1.3533434296e+02 1.2500092681e+02 0.0000e+00 0.0000e+00
      -11  1    3    3    0    0 -2.3875903766e+01 -3.5987907113e+00 -6.6127566605e+01 7.0397905795e+01 0.0000000000e+00 0.0000e+00 1.0000e+00
       11  1    3    3    0    0 +2.7922127339e+01 +1.2748731412e+01 +1.5234941013e+01 3.4267751245e+01 0.0000000000e+00 0.0000e+00 -1.0000e+00
        5  1    4    4  501    0 +4.4229783095e+00 +5.6575692456e+00 +6.4597466596e+00 1.0741934360e+01 4.7000000000e+00 0.0000e+00 -1.0000e+00
       -5  1    4    4    0  501 +3.5423231659e+01 +2.6455439676e+01 -5.7644595604e-01 4.4464794158e+01 4.7000000000e+00 0.0000e+00 -1.0000e+00
        5  1    4    4  502    0 -3.3646116396e+01 -2.0865480337e+01 +1.6106314066e+01 4.2999218261e+01 4.7000000000e+00 0.0000e+00 -1.0000e+00
       -5  1    4    4    0  502 -1.0246317145e+01 -2.0397469286e+01 +2.8903010823e+01 3.7128396180e+01 4.7000000000e+00 0.0000e+00 -1.0000e+00
</event>
<event>
10      1 +4.6527485e-10 2.40000000e+02 7.81860800e-03 1.03012300e-01
      -11 -1    0    0    0    0 +0.0000000000e+00 +0.0000000000e+00 +1.2000000000e+02 1.2000000000e+02 0.0000000000e+00 0.0000e+00 1.0000e+00
       11 -1    0    0    0    0 -0.0000000000e+00 -0.0000000000e+00 -1.2000000000e+02 1.2000000000e+02 0.0000000000e+00 0.0000e+00 -1.0000e+00
       23  2    1    2    0    0 -1.0548578537e+01 +4.3410873950e+01 +1.5499081297e+01 1.0635804092e+02 9.5268225871e+01 0.0000e+00 0.0000e+00
       25  2    1    2    0    0 +1.0548578537e+01 -4.3410873950e+01 -1.5499081297e+01 1.3364195908e+02 1.2499670084e+02 0.0000e+00 0.0000e+00
      -13  1    3    3    0    0 -1.8851643323e+01 +9.8997261727e-01 +4.8454804790e+01 5.2002236577e+01 0.0000000000e+00 0.0000e+00 1.0000e+00
       13  1    3    3    0    0 +8.3030647858e+00 +4.2420901332e+01 -3.2955723493e+01 5.4355804341e+01 0.0000000000e+00 0.0000e+00 -1.0000e+00
        5  1    4    4  501    0 -2.8930358473e+01 -2.1819447584e+01 +7.8926974929e+00 3.7382330157e+01 4.7000000000e+00 0.0000e+00 1.0000e+00
       -5  1    4    4    0  501 -1.5109500843e+01 -2.9997930902e+01 -6.0346971934e+00 3.4448228464e+01 4.7000000000e+00 0.0000e+00 1.0000e+00
        5  1    4    4  502    0 +3.6192513179e+01 -5.8913498950e-01 -1.8194889814e+01 4.0784667531e+01 4.7000000000e+00 0.0000e+00 1.0000e+00
       -5  1    4    4    0  502 +1.8395924674e+01 +8.9956395259e+00 +8.3780821757e-01 2.1026732930e+01 4.7000000000e+00 0.0000e+00 1.0000e+00
</event>
<event>
10      1 +4.6527485e-10 2.40000000e+02 7.81860800e-03 1.03012300e-01
      -11 -1    0    0    0    0 +0.0000000000e+00 +0.0000000000e+00 +1.2000000000e+02 1.2000000000e+02 0.0000000000e+00 0.0000e+00 1.0000e+00
       11 -1    0    0    0    0 -0.0000000000e+00 -0.0000000000e+00 -1.2000000000e+02 1.2000000000e+02 0.0000000000e+00 0.0000e+00 -1.0000e+00
       23  2    1    2    0    0 -2.0687364503e+01 +2.2953994589e+01 -4.0614281633e+01 1.0498379326e+02 9.1745430714e+01 0.0000e+00 0.0000e+00
       25  2    1    2    0    0 +2.0687364503e+01 -2.2953994589e+01 +4.0614281633e+01 1.3501620674e+02 1.2500001317e+02 0.0000e+00 0.0000e+00
      -13  1    3    3    0    0 +5.8513677512e+00 -2.0971254402e+01 -4.8404800010e+01 5.3075951991e+01 0.0000000000e+00 0.0000e+00 -1.0000e+00
       13  1    3    3    0    0 -2.6538732254e+01 +4.3925248991e+01 +7.7905183766e+00 5.1907841268e+01 0.0000000000e+00 0.0000e+00 1.0000e+00
        5  1    4    4  501    0 +2.2185934253e+01 +8.5883900310e+00 +4.3918327736e+00 2.4644559585e+01 4.7000000000e+00 0.0000e+00 1.0000e+00
       -5  1    4    4    0  501 +3.7212850805e+01 -4.0098917336e+01 +1.8325610939e+01 5.7884691006e+01 4.7000000000e+00 0.0000e+00 1.0000e+00
        5  1    4    4  502    0 -1.7659957572e+00 +1.0780651598e+01 +2.6617384587e+00 1.2186715781e+01 4.7000000000e+00 0.0000e+00 -1.0000e+00
       -5  1    4    4    0  502 -3.6945424797e+01 -2.2241188818e+00 +1.5235099462e+01 4.0300240370e+01 4.7000000000e+00 0.0000e+00 -1.0000e+00
</event>
<event>
10      1 +4.6527485e-10 2.40000000e+02 7.81860800e-03 1.03012300e-01
      -11 -1    0    0    0    0 +0.0000000000e+00 +0.0000000000e+00 +1.2000000000e+02 1.2000000000e+02 0.0000000000e+00 0.0000e+00 1.0000e+00
       11 -1    0    0    0    0 -0.0000000000e+00 -0.0000000000e+00 -1.2000000000e+02 1.2000000000e+02 0.0000000000e+00 0.0000e+00 -1.0000e+00
       23  2    1    2    0    0 +6.7262465009e+00 +4.6551706739e+01 -1.5085351164e+01 1.0562536963e+02 9.3364056770e+01 0.0000e+00 0.0000e+00
       25  2    1    2    0    0 -6.7262465009e+00 -4.6551706739e+01 +1.5085351164e+01 1.3437463037e+02 1.2496667426e+02 0.0000e+00 0.0000e+00
      -13  1    3    3    0    0 -1.5791610649e+01 -1.3446678108e+01 -3.3095737800e+01 3.9057854262e+01 0.0000000000e+00 0.0000e+00 -1.0000e+00
       13  1    3    3    0    0 +2.2517857150e+01 +5.9998384847e+01 +1.8010386636e+01 6.6567515364e+01 0.0000000000e+00 0.0000e+00 1.0000e+00
        5  1    4    4  501    0 +1.3899905225e+01 -2.5703431608e+01 +7.5450193142e+00 3.0543265676e+01 4.7000000000e+00 0.0000e+00 -1.0000e+00
       -5  1    4    4    0  501 +3.5572492693e+01 -2.1861377355e+01 +1.1146754889e+01 4.3470245005e+01 4.7000000000e+00 0.0000e+00 -1.0000e+00
        5  1    4    4  502    0 -3.1813324200e+01 -9.0176470667e+00 -5.4649427785e-01 3.3403505973e+01 4.7000000000e+00 0.0000e+00 -1.0000e+00
       -5  1    4    4    0  502 -2.4385320218e+01 +1.0030749291e+01 -3.0599287621e+00 2.6957613721e+01 4.7000000000e+00 0.0000e+00 -1.0000e+00
</event>
<event>
10      1 +4.6527485e-10 2.40000000e+02 7.81860800e-03 1.03012300e-01
      -11 -1    0    0    0    0 +0.0000000000e+00 +0.0000000000e+00 +1.2000000000e+02 1.2000000000e+02 0.0000000000e+00 0.0000e+00 1.0000e+00
       11 -1    0    0    0    0 -0.0000000000e+00 -0.0000000000e+00 -1.2000000000e+02 1.2000000000e+02 0.0000000000e+00 0.0000e+00 -1.0000e+00
       23  2    1    2    0    0 -4.2492611414e+01 -2.8937103812e+01 -5.1560329084e+00 1.0474487048e+02 9.1114901165e+01 0.0000e+00 0.0000e+00
       25  2    1    2    0    0 +4.2492611414e+01 +2.8937103812e+01 +5.1560329084e+00 1.3525512952e+02 1.2499754951e+02 0.0000e+00 0.0000e+00
      -11  1    3    3    0    0 -3.3202896943e+01 -6.1846304903e+01 -6.7024461169e+00 7.0514683432e+01 0.0000000000e+00 0.0000e+00 1.0000e+00
       11  1    3    3    0    0 -9.2897144712e+00 +3.2909201091e+01 +1.5464132085e+00 3.4230187046e+01 0.0000000000e+00 0.0000e+00 -1.0000e+00
        5  1    4    4  501    0 -4.6780714872e+00 +8.6585932625e+00 -2.0125104019e+01 2.2890290560e+01 4.7000000000e+00 0.0000e+00 -1.0000e+00
       -5  1    4    4    0  502 +1.9762771901e+01 +1.4851308013e+00 +1.7613864361e+01 2.6927884886e+01 4.7000000000e+00 0.0000e+00 1.0000e+00
        5  1    4    4  502    0 +4.6327714708e+01 -1.2466894671e+01 +5.7340874334e+00 4.8545343459e+01 4.7000000000e+00 0.0000e+00 1.0000e+00
       -5  1    4    4    0  501 -1.8919803708e+01 +3.1260274420e+01 +1.9331851331e+00 3.6891610617e+01 4.7000000000e+00 0.0000e+00 -1.0000e+00
</event>
<event>
10      1 +4.6527485e-10 2.40000000e+02 7.81860800e-03 1.03012300e-01
      -11 -1    0    0    0    0 +0.0000000000e+00 +0.0000000000e+00 +1.2000000000e+02 1.2000000000e+02 0.0000000000e+00 0.0000e+00 1.0000e+00
       11 -1    0    0    0    0 -0.0000000000e+00 -0.0000000000e+00 -1.2000000000e+02 1.2000000000e+02 0.0000000000e+00 0.0000e+00 -1.0000e+00
       23  2    1    2    0    0 -1.8662894091e+00 +7.5157747124e+00 -4.7974722036e+01 1.0588635666e+02 9.4076440553e+01 0.0000e+00 0.0000e+00
       25  2    1    2    0    0 +1.8662894091e+00 -7.5157747124e+00 +4.7974722036e+01 1.3411364334e+02 1.2499970188e+02 0.0000e+00 0.0000e+00
      -13  1    3    3    0    0 +3.0268038366e+01 -2.8827018167e+01 -6.9903938597e+00 4.2379437576e+01 0.0000000000e+00 0.0000e+00 1.0000e+00
       13  1    3    3    0    0 -3.2134327775e+01 +3.6342792879e+01 -4.0984328176e+01 6.3506919087e+01 0.0000000000e+00 0.0000e+00 -1.0000e+00
        5  1    4    4  501    0 -9.2388205151e+00 +2.7441844200e+01 -2.0361531867e+01 3.5708438745e+01 4.7000000000e+00 0.0000e+00 -1.0000e+00
       -5  1    4    4    0  502 +2.7982060561e+00 -9.4310836914e-01 -5.5094728695e+00 7.8207225899e+00 4.7000000000e+00 0.0000e+00 1.0000e+00
        5  1    4    4  502    0 -4.6262279943e+00 +2.4968407376e+00 -1.4220725135e-02 7.0516949277e+00 4.7000000000e+00 0.0000e+00 1.0000e+00
       -5  1    4    4    0  501 +1.2933131862e+01 -3.6511351281e+01 +7.3859947498e+01 8.3532787075e+01 4.7000000000e+00 0.0000e+00 1.0000e+00
</event>
<event>
10      1 +4.6527485e-10 2.40000000e+02 7.81860800e-03 1.03012300e-01
      -11 -1    0    0    0    0 +0.0000000000e+00 +0.0000000000e+00 +1.2000000000e+02 1.2000000000e+02 0.0000000000e+00 0.0000e+00 1.0000e+00
       11 -1    0    0    0    0 -0.0000000000e+00 -0.0000000000e+00 -1.2000000000e+02 1.2000000000e+02 0.0000000000e+00 0.0000e+00 -1.0000e+00
       23  2    1    2    0    0 -4.4744052139e+01 -2.4580287272e+01 +1.9108700456e+00 1.0496837430e+02 9.1697805075e+01 0.0000e+00 0.0000e+00
       25  2    1    2    0    0 +4.4744052139e+01 +2.4580287272e+01 -1.9108700456e+00 1.3503162570e+02 1.2499467104e+02 0.0000e+00 0.0000e+00
      -13  1    3    3    0    0 +9.3786113238e+00 +4.8915716153e+00 +3.3915477359e+01 3.5526686135e+01 0.0000000000e+00 0.0000e+00 1.0000e+00
       13  1    3    3    0    0 -5.4122663463e+01 -2.9471858887e+01 -3.2004607313e+01 6.9441688170e+01 0.0000000000e+00 0.0000e+00 -1.0000e+00
        5  1    4    4  501    0 -1.6807227425e+01 -1.9404906840e+01 -3.2661323465e+01 4.1807718829e+01 4.7000000000e+00 0.0000e+00 1.0000e+00
       -5  1    4    4    0  502 +3.4821143195e+01 +3.1187725067e+01 +2.8339642235e+01 5.4867217264e+01 4.7000000000e+00 0.0000e+00 1.0000e+00
        5  1    4    4  502    0 +2.9507647803e+01 +1.1493334067e+01 +4.5786622055e+00 3.2339637512e+01 4.7000000000e+00 0.0000e+00 1.0000e+00
       -5  1    4    4    0  501 -2.7775114334e+00 +1.3041349792e+00 -2.1678510214e+00 6.0170520903e+00 4.7000000000e+00 0.0000e+00 -1.0000e+00
</event>
<event>
10      1 +4.6527485e-10 2.40000000e+02 7.81860800e-03 1.03012300e-01
      -11 -1    0    0    0    0 +0.0000000000e+00 +0.0000000000e+00 +1.2000000000e+02 1.2000000000e+02 0.0000000000e+00 0.0000e+00 -1.0000e+00
       11 -1    0    0    0    0 -0.0000000000e+00 -0.0000000000e+00 -1.2000000000e+02 1.2000000000e+02 0.0000000000e+00 0.0000e+00 1.0000e+00
       23  2    1    2    0    0 +4.5296479197e+01 +1.0502339807e+01 -1.2457154372e+01 1.0605029974e+02 9.4495583020e+01 0.0000e+00 0.0000e+00
       25  2    1    2    0    0 -4.5296479197e+01 -1.0502339807e+01 +1.2457154372e+01 1.3394970026e+02 1.2500108534e+02 0.0000e+00 0.0000e+00
      -11  1    3    3    0    0 +6.9446389786e+01 -1.3741455097e+01 -4.6118872401e+00 7.0942921750e+01 0.0000000000e+00 0.0000e+00 1.0000e+00
       11  1    3    3    0    0 -2.4149910589e+01 +2.4243794904e+01 -7.8452671315e+00 3.5107377988e+01 0.0000000000e+00 0.0000e+00 -1.0000e+00
        5  1    4    4  501    0 -2.0329546007e+01 +2.6203255514e+01 +2.0493926760e+01 3.9268206916e+01 4.7000000000e+00 0.0000e+00 1.0000e+00
       -5  1    4    4    0  501 -2.1947506062e+01 +2.2512349196e+01 -3.0245737476e+00 3.1933320138e+01 4.7000000000e+00 0.0000e+00 1.0000e+00
        5  1    4    4  502    0 +3.3920922095e+00 -9.4500466124e+00 +3.5217118920e+00 1.1631944170e+01 4.7000000000e+00 0.0000e+00 1.0000e+00
       -5  1    4    4    0  502 -6.4115193376e+00 -4.9767897905e+01 -8.5339105323e+00 5.1116229038e+01 4.7000000000e+00 0.0000e+00 1.0000e+00
</event>
<event>
10      1 +4.6527485e-10 2.40000000e+02 7.81860800e-03 1.03012300e-01
      -11 -1    0    0    0    0 +0.0000000000e+00 +0.0000000000e+00 +1.2000000000e+02 1.2000000000e+02 0.0000000000e+00 0.0000e+00 -1.0000e+00
       11 -1    0    0    0    0 -0.0000000000e+00 -0.0000000000e+00 -1.2000000000e+02 1.2000000000e+02 0.0000000000e+00 0.0000e+00 1.0000e+00
       23  2    1    2    0    0 +3.8333541091e+01 +1.4195824712e+01 +3.5312574478e+01 1.0382714090e+02 8.8668570864e+01 0.0000e+00 0.0000e+00
       25  2    1    2    0    0 -3.8333541091e+01 -1.4195824712e+01 -3.5312574478e+01 1.3617285910e+02 1.2500035131e+02 0.0000e+00 0.0000e+00
      -11  1    3    3    0    0 +3.9141741113e+01 +3.2740697760e+01 +5.6181525793e+01 7.5897253097e+01 0.0000000000e+00 0.0000e+00 -1.0000e+00
       11  1    3    3    0    0 -8.0820002181e-01 -1.8544873048e+01 -2.0868951315e+01 2.7929887802e+01 0.0000000000e+00 0.0000e+00 1.0000e+00
        5  1    4    4  501    0 +1.1457927154e+01 -8.2924160893e+00 -5.8674753679e+00 1.6017662952e+01 4.7000000000e+00 0.0000e+00 -1.0000e+00
       -5  1    4    4    0  501 +2.6976150888e+01 +1.4094988907e+00 -3.0596940383e+01 4.1084816717e+01 4.7000000000e+00 0.0000e+00 1.0000e+00
        5  1    4    4  502    0 -3.3484593228e+01 -1.0486567425e+01 +1.0527639228e+00 3.5417289448e+01 4.7000000000e+00 0.0000e+00 1.0000e+00
       -5  1    4    4    0  502 -4.3283025906e+01 +3.1736599114e+00 +9.9077349985e-02 4.3653089984e+01 4.7000000000e+00 0.0000e+00 1.0000e+00
</event>
<event>
10      1 +4.6527485e-10 2.40000000e+02 7.81860800e-03 1.03012300e-01
      -11 -1    0    0    0    0 +0.0000000000e+00 +0.0000000000e+00 +1.2000000000e+02 1.2000000000e+02 0.0000000000e+00 0.0000e+00 1.0000e+00
       11 -1    0    0    0    0 -0.0000000000e+00 -0.0000000000e+00 -1.2000000000e+02 1.2000000000e+02 0.0000000000e+00 0.0000e+00 -1.0000e+00
       23  2    1    2    0    0 -2.3825087246e+01 +3.3480594599e+00 +4.3740806463e+01 1.0540077120e+02 9.2828983266e+01 0.0000e+00 0.0000e+00
       25  2    1    2    0    0 +2.3825087246e+01 -3.3480594599e+00 -4.3740806463e+01 1.3459922880e+02 1.2499939984e+02 0.0000e+00 0.0000e+00
      -13  1    3    3    0    0 -3.4780124850e+01 -1.5249610097e+01 -1.6502848500e+01 4.1407145535e+01 0.0000000000e+00 0.0000e+00 -1.0000e+00
       13  1    3    3    0    0 +1.0955037604e+01 +1.8597669557e+01 +6.0243654963e+01 6.3993625661e+01 0.0000000000e+00 0.0000e+00 1.0000e+00
        5  1    4    4  501    0 +5.5366181212e+00 +8.0869205919e-01 -9.4798114687e+00 1.1969333672e+01 4.7000000000e+00 0.0000e+00 1.0000e+00
       -5  1    4    4    0  502 -7.9602650526e+00 +7.6256366901e-01 +1.0577318111e+01 1.4068297035e+01 4.7000000000e+00 0.0000e+00 1.0000e+00
        5  1    4    4  502    0 -4.6413740474e+00 +2.1075300984e+01 +2.1460697133e+01 3.0795489703e+01 4.7000000000e+00 0.0000e+00 1.0000e+00
       -5  1    4    4    0  501 +3.0890108224e+01 -2.5994616172e+01 -6.6299010239e+01 7.7766108394e+01 4.7000000000e+00 0.0000e+00 1.0000e+00
</event>
<event>
10      1 +4.6527485e-10 2.40000000e+02 7.81860800e-03 1.03012300e-01
      -11 -1    0    0    0    0 +0.0000000000e+00 +0.0000000000e+00 +1.2000000000e+02 1.2000000000e+02 0.0000000000e+00 0.0000e+00 1.0000e+00
       11 -1    0    0    0    0 -0.0000000000e+00 -0.0000000000e+00 -1.2000000000e+02 1.2000000000e+02 0.0000000000e+00 0.0000e+00 -1.0000e+00
       23  2    1    2    0    0 +7.2140685372e+00 +5.0676516302e+01 +6.7881224571e-01 1.0491659932e+02 9.1579910117e+01 0.0000e+00 0.0000e+00
       25  2    1    2    0    0 -7.2140685372e+00 -5.0676516302e+01 -6.7881224571e-01 1.3508340068e+02 1.2500764882e+02 0.0000e+00 0.0000e+00
      -11  1    3    3    0    0 -1.0733523411e+00 +1.9574608302e+01 -4.4972259572e+01 4.9059367163e+01 0.0000000000e+00 0.0000e+00 -1.0000e+00
       11  1    3    3    0    0 +8.2874208782e+00 +3.1101908000e+01 +4.5651071817e+01 5.5857232156e+01 0.0000000000e+00 0.0000e+00 1.0000e+00
        5  1    4    4  501    0 +3.7658801150e+00 -2.5285822332e+01 +9.6404347834e-01 2.6011036963e+01 4.7000000000e+00 0.0000e+00 -1.0000e+00
       -5  1    4    4    0  501 +2.9601846538e+01 -3.4275338705e+01 +2.9344917088e+01 5.4169016243e+01 4.7000000000e+00 0.0000e+00 -1.0000e+00
        5  1    4    4  502    0 -2.9967623769e+01 +3.2126207206e+00 -2.8500551099e+01 4.1746267129e+01 4.7000000000e+00 0.0000e+00 1.0000e+00
       -5  1    4    4    0  502 -1.0614171421e+01 +5.6720240153e+00 -2.4872217127e+00 1.3157080346e+01 4.7000000000e+00 0.0000e+00 1.0000e+00
</event>
<event>
10      1 +4.6527485e-10 2.40000000e+02 7.81860800e-03 1.03012300e-01
      -11 -1    0    0    0    0 +0.0000000000e+00 +0.0000000000e+00 +1.2000000000e+02 1.2000000000e+02 0.0000000000e+00 0.0000e+00 1.0000e+00
       11 -1    0    0    0    0 -0.0000000000e+00 -0.0000000000e+00 -1.2000000000e+02 1.2000000000e+02 0.0000000000e+00 0.0000e+00 -1.0000e+00
       23  2    1    2    0    0 +1.0278649729e+01 +4.4925341156e+01 -3.2979560207e+01 1.0274845355e+02 8.5706804845e+01 0.0000e+00 0.0000e+00
       25  2    1    2    0    0 -1.0278649729e+01 -4.4925341156e+01 +3.2979560207e+01 1.3725154645e+02 1.2500559465e+02 0.0000e+00 0.0000e+00
      -13  1    3    3    0    0 -2.5722416313e+01 +2.3651944089e+00 +1.4413826753e+01 2.9580318579e+01 0.0000000000e+00 0.0000e+00 1.0000e+00
       13  1    3    3    0    0 +3.6001066042e+01 +4.2560146747e+01 -4.7393386960e+01 7.3168134969e+01 0.0000000000e+00 0.0000e+00 -1.0000e+00
        5  1    4    4  501    0 +2.0025079934e+00 -7.0733625942e+01 +3.6527595133e+01 7.9772245069e+01 4.7000000000e+00 0.0000e+00 -1.0000e+00
       -5  1    4    4    0  502 -9.3802195066e+00 +1.0926767901e+01 -6.3921407459e+00 1.6441783299e+01 4.7000000000e+00 0.0000e+00 1.0000e+00
        5  1    4    4  502    0 +6.4551888518e+00 +2.3680411093e+01 -4.6845729805e+00 2.5425706611e+01 4.7000000000e+00 0.0000e+00 1.0000e+00
       -5  1    4    4    0  501 -9.3561270677e+00 -8.7988942075e+00 +7.5286788004e+00 1.5611811473e+01 4.7000000000e+00 0.0000e+00 -1.0000e+00
</event>
<event>
10      1 +4.6527485e-10 2.40000000e+02 7.81860800e-03 1.03012300e-01
      -11 -1    0    0    0    0 +0.0000000000e+00 +0.0000000000e+00 +1.2000000000e+02 1.2000000000e+02 0.0000000000e+00 0.0000e+00 1.0000e+00
       11 -1    0    0    0    0 -0.0000000000e+00 -0.0000000000e+00 -1.2000000000e+02 1.2000000000e+02 0.0000000000e+00 0.0000e+00 -1.0000e+00
       23  2    1    2    0    0 -2.2947268928e+01 -4.8439996190e+01 -1.2684324339e+01 1.0341320736e+02 8.7523648180e+01 0.0000e+00 0.0000e+00
       25  2    1    2    0    0 +2.2947268928e+01 +4.8439996190e+01 +1.2684324339e+01 1.3658679264e+02 1.2498819727e+02 0.0000e+00 0.0000e+00
      -13  1    3    3    0    0 +1.6344622085e+00 +4.5037584455e+00 +3.0455350815e+01 3.0829915669e+01 0.0000000000e+00 0.0000e+00 1.0000e+00
       13  1    3    3    0    0 -2.4581731136e+01 -5.2943754636e+01 -4.3139675155e+01 7.2583291693e+01 0.0000000000e+00 0.0000e+00 -1.0000e+00
        5  1    4    4  501    0 -2.0761716717e+01 +2.4332764173e+01 -2.8523240451e+00 3.2455477901e+01 4.7000000000e+00 0.0000e+00 1.0000e+00
       -5  1    4    4    0  501 -2.0484950955e+01 +5.0547677013e+00 -1.6680775777e+01 2.7304251915e+01 4.7000000000e+00 0.0000e+00 1.0000e+00
        5  1    4    4  502    0 +5.4068389091e+01 +1.8005177233e+01 +3.2181282202e+01 6.5614800390e+01 4.7000000000e+00 0.0000e+00 -1.0000e+00
       -5  1    4    4    0  502 +1.0125547509e+01 +1.0472870835e+00 +3.6141959100e-02 1.1212262431e+01 4.7000000000e+00 0.0000e+00 -1.0000e+00
</event>
<event>
10      1 +4.6527485e-10 2.40000000e+02 7.81860800e-03 1.03012300e-01
      -11 -1    0    0    0    0 +0.0000000000e+00 +0.0000000000e+00 +1.2000000000e+02 1.2000000000e+02 0.0000000000e+00 0.0000e+00 -1.0000e+00
       11 -1    0    0    0    0 -0.0000000000e+00 -0.0000000000e+00 -1.2000000000e+02 1.2000000000e+02 0.0000000000e+00 0.0000e+00 1.0000e+00
       23  2    1    2    0    0 -2.7512603732e+01 -3.4971979782e+01 +1.5302899260e+01 1.0643846872e+02 9.5472436664e+01 0.0000e+00 0.0000e+00
       25  2    1    2    0    0 +2.7512603732e+01 +3.4971979782e+01 -1.5302899260e+01 1.3356153128e+02 1.2499808470e+02 0.0000e+00 0.0000e+00
      -11  1    3    3    0    0 -2.8034091838e+01 +1.1367719314e+01 -2.9302929099e+01 4.2116469479e+01 0.0000000000e+00 0.0000e+00 1.0000e+00
       11  1    3    3    0    0 +5.2148810556e-01 -4.6339699096e+01 +4.4605828359e+01 6.4321999236e+01 0.0000000000e+00 0.0000e+00 -1.0000e+00
        5  1    4    4  501    0 +5.3357480851e+01 -9.0238727192e+00 +1.2994591492e+01 5.5851593080e+01 4.7000000000e+00 0.0000e+00 1.0000e+00
       -5  1    4    4    0  501 +1.0011298177e+01 +3.6953143377e+00 +3.1801815855e+00 1.2086562546e+01 4.7000000000e+00 0.0000e+00 1.0000e+00
        5  1    4    4  502    0 -2.2026246426e+00 +5.0614159496e-01 -2.1870555292e+00 5.6551698929e+00 4.7000000000e+00 0.0000e+00 -1.0000e+00
       -5  1    4    4    0  502 -3.3653550653e+01 +3.9794396568e+01 -2.9290616808e+01 5.9968205766e+01 4.7000000000e+00 0.0000e+00 1.0000e+00
</event>
<event>
10      1 +4.6527485e-10 2.40000000e+02 7.81860800e-03 1.03012300e-01
      -11 -1    0    0    0    0 +0.0000000000e+00 +0.0000000000e+00 +1.2000000000e+02 1.2000000000e+02 0.0000000000e+00 0.0000e+00 1.0000e+00
       11 -1    0    0    0    0 -0.0000000000e+00 -0.0000000000e+00 -1.2000000000e+02 1.2000000000e+02 0.0000000000e+00 0.0000e+00 -1.0000e+00
       23  2    1    2    0    0 +5.9842247850e+00 +3.1276960043e+01 +4.6021249058e+01 1.0304469970e+02 8.6522803900e+01 0.0000e+00 0.0000e+00
       25  2    1    2    0    0 -5.9842247850e+00 -3.1276960043e+01 -4.6021249058e+01 1.3695530030e+02 1.2499895896e+02 0.0000e+00 0.0000e+00
      -11  1    3    3    0    0 -8.1026882965e+00 -1.0711165812e+01 +5.6048800015e+01 5.7635497862e+01 0.0000000000e+00 0.0000e+00 1.0000e+00
       11  1    3    3    0    0 +1.4086913082e+01 +4.1988125854e+01 -1.0027550957e+01 4.5409201833e+01 0.0000000000e+00 0.0000e+00 -1.0000e+00
        5  1    4    4  501    0 +7.6639121771e-01 +9.9416541376e+00 -3.6777010973e+01 3.8393520008e+01 4.7000000000e+00 0.0000e+00 -1.0000e+00
       -5  1    4    4    0  502 -2.6038051943e+01 -3.9142823358e+01 +2.2471295608e+01 5.2318160286e+01 4.7000000000e+00 0.0000e+00 1.0000e+00
        5  1    4    4  502    0 +1.4766377994e+00 -9.5978976134e+00 -2.8037739386e+00 1.1146804299e+01 4.7000000000e+00 0.0000e+00 1.0000e+00
       -5  1    4    4    0  501 +1.7810798141e+01 +7.5221067914e+00 -2.8911759754e+01 3.5096815712e+01 4.7000000000e+00 0.0000e+00 -1.0000e+00
</event>
<event>
10      1 +4.6527485e-10 2.40000000e+02 7.81860800e-03 1.03012300e-01
      -11 -1    0    0    0    0 +0.0000000000e+00 +0.0000000000e+00 +1.2000000000e+02 1.2000000000e+02 0.0000000000e+00 0.0000e+00 1.0000e+00
       11 -1    0    0    0    0 -0.0000000000e+00 -0.0000000000e+00 -1.2000000000e+02 1.2000000000e+02 0.0000000000e+00 0.0000e+00 -1.0000e+00
       23  2    1    2    0    0 +4.2586864412e+01 -2.9000091874e+01 +2.7573260884e+00 1.0478888570e+02 9.1205599443e+01 0.0000e+00 0.0000e+00
       25  2    1    2    0    0 -4.2586864412e+01 +2.9000091874e+01 -2.7573260884e+00 1.3521111430e+02 1.2497918320e+02 0.0000e+00 0.0000e+00
      -13  1    3    3    0    0 +7.1137492590e+01 -2.2329568287e+01 -4.1203803135e+00 7.4673489311e+01 0.0000000000e+00 0.0000e+00 -1.0000e+00
       13  1    3    3    0    0 -2.8550628178e+01 -6.6705235867e+00 +6.8777064019e+00 3.0115396388e+01 0.0000000000e+00 0.0000e+00 1.0000e+00
        5  1    4    4  501    0 +1.2421589199e+01 +2.1380751148e+01 -1.5429206397e+01 2.9522581322e+01 4.7000000000e+00 0.0000e+00 1.0000e+00
       -5  1    4    4    0  502 -1.5388759573e+01 -1.0090790061e+01 -2.9746474532e+00 1.9224372362e+01 4.7000000000e+00 0.0000e+00 -1.0000e+00
        5  1    4    4  502    0 -3.6538197229e+01 -1.7935185117e+01 +2.6482706405e+01 4.8786621737e+01 4.7000000000e+00 0.0000e+00 -1.0000e+00
       -5  1    4    4    0  501 -3.0814968084e+00 +3.5645315904e+01 -1.0836178643e+01 3.7677538880e+01 4.7000000000e+00 0.0000e+00 1.0000e+00
</event>
<event>
10      1 +4.6527485e-10 2.40000000e+02 7.81860800e-03 1.03012300e-01
      -11 -1    0    0    0    0 +0.0000000000e+00 +0.0000000000e+00 +1.2000000000e+02 1.2000000000e+02 0.0000000000e+00 0.0000e+00 -1.0000e+00
       11 -1    0    0    0    0 -0.0000000000e+00 -0.0000000000e+00 -1.2000000000e+02 1.2000000000e+02 0.0000000000e+00 0.0000e+00 1.0000e+00
       23  2    1    2    0    0 -2.5721205508e+01 -1.8599709490e+00 -3.6026430462e+01 1.0738060311e+02 9.7814366672e+01 0.0000e+00 0.0000e+00
       25  2    1    2    0    0 +2.5721205508e+01 +1.8599709490e+00 +3.6026430462e+01 1.3261939689e+02 1.2499984334e+02 0.0000e+00 0.0000e+00
      -13  1    3    3    0    0 +7.9320960395e+00 -1.5540021268e+01 +2.8450403940e+01 3.3374180034e+01 0.0000000000e+00 0.0000e+00 -1.0000e+00
       13  1    3    3    0    0 -3.3653301548e+01 +1.3680050319e+01 -6.4476834402e+01 7.4006423074e+01 0.0000000000e+00 0.0000e+00 1.0000e+00
        5  1    4    4  501    0 +6.5474053559e+01 +2.9686509815e+00 +3.5756772316e+01 7.4808430972e+01 4.7000000000e+00 0.0000e+00 1.0000e+00
       -5  1    4    4    0  501 -2.9297627482e+01 -2.8194265242e+00 -4.7990847087e+00 3.0189755812e+01 4.7000000000e+00 0.0000e+00 1.0000e+00
        5  1    4    4  502    0 +4.4129311703e+00 -6.4508437891e+00 +4.0861706107e+00 9.9937048869e+00 4.7000000000e+00 0.0000e+00 -1.0000e+00
       -5  1    4    4    0  502 -1.4868151740e+01 +8.1615902809e+00 +9.8257224374e-01 1.7627505220e+01 4.7000000000e+00 0.0000e+00 -1.0000e+00
</event>
<event>
10      1 +4.6527485e-10 2.40000000e+02 7.81860800e-03 1.03012300e-01
      -11 -1    0    0    0    0 +0.0000000000e+00 +0.0000000000e+00 +1.2000000000e+02 1.2000000000e+02 0.0000000000e+00 0.0000e+00 1.0000e+00
       11 -1    0    0    0    0 -0.0000000000e+00 -0.0000000000e+00 -1.2000000000e+02 1.2000000000e+02 0.0000000000e+00 0.0000e+00 -1.0000e+00
       23  2    1    2    0    0 +1.5662321188e+01 +4.8030865975e+01 +1.1116174570e+01 1.0471778177e+02 9.1049283859e+01 0.0000e+00 0.0000e+00
       25  2    1    2    0    0 -1.5662321188e+01 -4.8030865975e+01 -1.1116174570e+01 1.3528221823e+02 1.2500174735e+02 0.0000e+00 0.0000e+00
      -13  1    3    3    0    0 -3.5003098335e+01 +3.6312467427e+01 +1.4861376306e+01 5.2580154900e+01 0.0000000000e+00 0.0000e+00 1.0000e+00
       13  1    3    3    0    0 +5.0665419523e+01 +1.1718398548e+01 -3.7452017355e+00 5.2137626873e+01 0.0000000000e+00 0.0000e+00 -1.0000e+00
        5  1    4    4  501    0 -1.1304609291e+01 -8.1785514303e+00 -1.1197308959e+01 1.8497367992e+01 4.7000000000e+00 0.0000e+00 -1.0000e+00
       -5  1    4    4    0  502 +1.4930512847e+01 -8.9805398316e+00 -6.0257680764e+00 1.9025514197e+01 4.7000000000e+00 0.0000e+00 1.0000e+00
        5  1    4    4  502    0 +3.1570518953e+01 -2.9101031649e+01 +1.5319436532e+01 4.5829497550e+01 4.7000000000e+00 0.0000e+00 1.0000e+00
       -5  1    4    4    0  501 -5.0858743697e+01 -1.7707430635e+00 -9.2125340676e+00 5.1929838487e+01 4.7000000000e+00 0.0000e+00 -1.0000e+00
</event>
<event>
10      1 +4.6527485e-10 2.40000000e+02 7.81860800e-03 1.03012300e-01
      -11 -1    0    0    0    0 +0.0000000000e+00 +0.0000000000e+00 +1.2000000000e+02 1.2000000000e+02 0.0000000000e+00 0.0000e+00 -1.0000e+00
       11 -1    0    0    0    0 -0.0000000000e+00 -0.0000000000e+00 -1.2000000000e+02 1.2000000000e+02 0.0000000000e+00 0.0000e+00 1.0000e+00
       23  2    1    2    0    0 -9.6777801064e+00 +1.2520246415e+01 -4.9013739412e+01 1.0481380625e+02 9.1286205594e+01 0.0000e+00 0.0000e+00
       25  2    1    2    0    0 +9.6777801064e+00 -1.2520246415e+01 +4.9013739412e+01 1.3518619375e+02 1.2499017694e+02 0.0000e+00 0.0000e+00
      -11  1    3    3    0    0 +3.2433597598e+01 +1.2461617947e+01 -5.2062904265e+01 6.2592141484e+01 0.0000000000e+00 0.0000e+00 1.0000e+00
       11  1    3    3    0    0 -4.2111377705e+01 +5.8628468665e-02 +3.0491648524e+00 4.2221664768e+01 0.0000000000e+00 0.0000e+00 -1.0000e+00
        5  1    4    4  501    0 +1.3046286849e+01 +3.2136713769e+01 +2.3812218960e+01 4.2333033723e+01 4.7000000000e+00 0.0000e+00 -1.0000e+00
       -5  1    4    4    0  501 +6.6974880695e-02 +1.3381573151e+01 +2.7457255110e+01 3.0904074874e+01 4.7000000000e+00 0.0000e+00 -1.0000e+00
        5  1    4    4  502    0 +3.6622109130e-01 -5.4321955858e+01 -3.8981882858e+00 5.4665298664e+01 4.7000000000e+00 0.0000e+00 -1.0000e+00
       -5  1    4    4    0  502 -3.8017027144e+00 -3.7165774766e+00 +1.6424536281e+00 7.2837864871e+00 4.7000000000e+00 0.0000e+00 -1.0000e+00
</event>
<event>
10      1 +4.6527485e-10 2.40000000e+02 7.81860800e-03 1.03012300e-01
      -11 -1    0    0    0    0 +0.0000000000e+00 +0.0000000000e+00 +1.2000000000e+02 1.2000000000e+02 0.0000000000e+00 0.0000e+00 1.0000e+00
       11 -1    0    0    0    0 -0.0000000000e+00 -0.0000000000e+00 -1.2000000000e+02 1.2000000000e+02 0.0000000000e+00 0.0000e+00 -1.0000e+00
       23  2    1    2    0    0 -4.3615838073e+01 +2.1708094389e+01 +1.6672075630e+01 1.0480840321e+02 9.1286694459e+01 0.0000e+00 0.0000e+00
       25  2    1    2    0    0 +4.3615838073e+01 -2.1708094389e+01 -1.6672075630e+01 1.3519159679e+02 1.2500090817e+02 0.0000e+00 0.0000e+00
      -11  1    3    3    0    0 -1.0687683119e+01 -3.5311600845e+01 +3.1362718421e-02 3.6893586276e+01 0.0000000000e+00 0.0000e+00 1.0000e+00
       11  1    3    3    0    0 -3.2928154954e+01 +5.7019695234e+01 +1.6640712911e+01 6.7914816936e+01 0.0000000000e+00 0.0000e+00 -1.0000e+00
        5  1    4    4  501    0 +4.3150032036e-01 +6.8828211112e+00 -4.6219122935e+00 9.5399943514e+00 4.7000000000e+00 0.0000e+00 -1.0000e+00
       -5  1    4    4    0  501 +3.0742358923e+00 +5.0038088437e+00 -5.3641893177e+01 5.4166703175e+01 4.7000000000e+00 0.0000e+00 -1.0000e+00
        5  1    4    4  502    0 +2.3915055677e+01 -5.0751216945e+00 +1.5658107313e+01 2.9410084544e+01 4.7000000000e+00 0.0000e+00 -1.0000e+00
       -5  1    4    4    0  502 +1.6195046183e+01 -2.8519602649e+01 +2.5933622528e+01 4.2074814718e+01 4.7000000000e+00 0.0000e+00 -1.0000e+00
</event>
<event>
10      1 +4.6527485e-10 2.40000000e+02 7.81860800e-03 1.03012300e-01
      -11 -1    0    0    0    0 +0.0000000000e+00 +0.0000000000e+00 +1.2000000000e+02 1.2000000000e+02 0.0000000000e+00 0.0000e+00 -1.0000e+00
       11 -1    0    0    0    0 -0.0000000000e+00 -0.0000000000e+00 -1.2000000000e+02 1.2000000000e+02 0.0000000000e+00 0.0000e+00 1.0000e+00
       23  2    1    2    0    0 -2.5646783369e+01 -4.2676216451e+01 +7.4125484801e-01 1.0543693093e+02 9.2937505876e+01 0.0000e+00 0.0000e+00
       25  2    1    2    0    0 +2.5646783369e+01 +4.2676216451e+01 -7.4125484801e-01 1.3456306907e+02 1.2501061215e+02 0.0000e+00 0.0000e+00
      -13  1    3    3    0    0 +2.8245126098e+01 -3.6760362153e+01 -1.5433290629e+01 4.8859981923e+01 0.0000000000e+00 0.0000e+00 1.0000e+00
       13  1    3    3    0    0 -5.3891909467e+01 -5.9158542985e+00 +1.6174545477e+01 5.6576949012e+01 0.0000000000e+00 0.0000e+00 -1.0000e+00
        5  1    4    4  501    0 -7.4753173300e+00 -3.2388948833e+00 +1.3006106080e+01 1.6050532846e+01 4.7000000000e+00 0.0000e+00 1.0000e+00
       -5  1    4    4    0  501 -3.6067398213e+00 -2.6721351087e+01 +7.8210125109e+00 2.8465723472e+01 4.7000000000e+00 0.0000e+00 1.0000e+00
        5  1    4    4  502    0 +1.0748870524e+01 +1.0228074603e+01 +6.2813612242e+00 1.6783838252e+01 4.7000000000e+00 0.0000e+00 1.0000e+00
       -5  1    4    4    0  502 +2.5979969996e+01 +6.2408387819e+01 -2.7849734664e+01 7.3262974496e+01 4.7000000000e+00 0.0000e+00 1.0000e+00
</event>
<event>
10      1 +4.6527485e-10 2.40000000e+02 7.81860800e-03 1.03012300e-01
      -11 -1    0    0    0    0 +0.0000000000e+00 +0.0000000000e+00 +1.2000000000e+02 1.2000000000e+02 0.0000000000e+00 0.0000e+00 1.0000e+00
       11 -1    0    0    0    0 -0.0000000000e+00 -0.0000000000e+00 -1.2000000000e+02 1.2000000000e+02 0.0000000000e+00 0.0000e+00 -1.0000e+00
       23  2    1    2    0    0 +3.3884183133e+01 -4.0952085087e+01 +1.1713498796e+00 1.0416410028e+02 8.9574419267e+01 0.0000e+00 0.0000e+00
       25  2    1    2    0    0 -3.3884183133e+01 +4.0952085087e+01 -1.1713498796e+00 1.3583589972e+02 1.2499923381e+02 0.0000e+00 0.0000e+00
      -11  1    3    3    0    0 +4.0670693173e+01 -6.1347653592e+01 -1.7540212974e+01 7.5665705280e+01 0.0000000000e+00 0.0000e+00 -1.0000e+00
       11  1    3    3    0    0 -6.7865100399e+00 +2.0395568505e+01 +1.8711562853e+01 2.8498395000e+01 0.0000000000e+00 0.0000e+00 1.0000e+00
        5  1    4    4  501    0 -9.0311852050e+00 +1.8591286513e+01 -9.8626872756e-01 2.1219353581e+01 4.7000000000e+00 0.0000e+00 -1.0000e+00
       -5  1    4    4    0  502 +2.7863924112e+00 -5.3105134117e-02 +2.5470254319e+00 6.0286102358e+00 4.7000000000e+00 0.0000e+00 -1.0000e+00
        5  1    4    4  502    0 +1.3386861720e+01 -2.6966121425e+01 -2.6085698956e+01 4.0111512829e+01 4.7000000000e+00 0.0000e+00 1.0000e+00
       -5  1    4    4    0  501 -4.1026252060e+01 +4.9380025133e+01 +2.3353592372e+01 6.8476423073e+01 4.7000000000e+00 0.0000e+00 -1.0000e+00
</event>
<event>
10      1 +4.6527485e-10 2.40000000e+02 7.81860800e-03 1.03012300e-01
      -11 -1    0    0    0    0 +0.0000000000e+00 +0.0000000000e+00 +1.2000000000e+02 1.2000000000e+02 0.0000000000e+00 0.0000e+00 -1.0000e+00
       11 -1    0    0    0    0 -0.0000000000e+00 -0.0000000000e+00 -1.2000000000e+02 1.2000000000e+02 0.0000000000e+00 0.0000e+00 1.0000e+00
       23  2    1    2    0    0 +1.9853801950e+00 +4.1566329687e+01 +4.8902053975e+01 9.9472153741e+01 7.5971027297e+01 0.0000e+00 0.0000e+00
       25  2    1    2    0    0 -1.9853801950e+00 -4.1566329687e+01 -4.8902053975e+01 1.4052784626e+02 1.2499985277e+02 0.0000e+00 0.0000e+00
      -13  1    3    3    0    0 +1.8716300605e+01 +3.9118888883e+01 +6.3661009154e+01 7.7027991421e+01 0.0000000000e+00 0.0000e+00 -1.0000e+00
       13  1    3    3    0    0 -1.6730920410e+01 +2.4474408041e+00 -1.4758955179e+01 2.2444162320e+01 0.0000000000e+00 0.0000e+00 1.0000e+00
        5  1    4    4  501    0 -2.8377802825e+01 -3.1241242268e+00 -5.3811613214e+00 2.9429691512e+01 4.7000000000e+00 0.0000e+00 -1.0000e+00
       -5  1    4    4    0  502 +2.1254427125e+01 -1.9854186655e+01 -3.2719392802e+01 4.4029400013e+01 4.7000000000e+00 0.0000e+00 1.0000e+00
        5  1    4    4  502    0 +1.3891727294e+01 -3.0966467938e+01 -2.7570630462e+01 4.3978766329e+01 4.7000000000e+00 0.0000e+00 1.0000e+00
       -5  1    4    4    0  501 -8.7537317889e+00 +1.2378449132e+01 +1.6769130610e+01 2.3089988406e+01 4.7000000000e+00 0.0000e+00 -1.0000e+00
</event>
<event>
10      1 +4.6527485e-10 2.40000000e+02 7.81860800e-03 1.03012300e-01
      -11 -1    0    0    0    0 +0.0000000000e+00 +0.0000000000e+00 +1.2000000000e+02 1.2000000000e+02 0.0000000000e+00 0.0000e+00 1.0000e+00
       11 -1    0    0    0    0 -0.0000000000e+00 -0.0000000000e+00 -1.2000000000e+02 1.2000000000e+02 0.0000000000e+00 0.0000e+00 -1.0000e+00
       23  2    1    2    0    0 +2.1093713114e+01 +2.8630451525e+01 -3.7784073522e+01 1.0465142501e+02 9.0882545393e+01 0.0000e+00 0.0000e+00
       25  2    1    2    0    0 -2.1093713114e+01 -2.8630451525e+01 +3.7784073522e+01 1.3534857499e+02 1.2500781197e+02 0.0000e+00 0.0000e+00
      -11  1    3    3    0    0 +3.4388288455e+01 +1.8903141946e+01 -6.3183530100e+01 7.4377695811e+01 0.0000000000e+00 0.0000e+00 -1.0000e+00
       11  1    3    3    0    0 -1.3294575341e+01 +9.7273095791e+00 +2.5399456577e+01 3.0273729198e+01 0.0000000000e+00 0.0000e+00 1.0000e+00
        5  1    4    4  501    0 +3.6750751195e+00 +1.1507665245e+01 +2.9957950083e-01 1.2965812138e+01 4.7000000000e+00 0.0000e+00 -1.0000e+00
       -5  1    4    4    0  501 -2.0804873706e+01 +2.3709423019e+01 +4.5559425476e+01 5.5612325608e+01 4.7000000000e+00 0.0000e+00 -1.0000e+00
        5  1    4    4  502    0 +5.2066777860e-01 -5.1626893963e+01 -2.6675578887e+00 5.1911589653e+01 4.7000000000e+00 0.0000e+00 1.0000e+00
       -5  1    4    4    0  502 -4.4845823063e+00 -1.2220645825e+01 -5.4073735659e+00 1.4858847591e+01 4.7000000000e+00 0.0000e+00 1.0000e+00
</event>
<event>
10      1 +4.6527485e-10 2.40000000e+02 7.81860800e-03 1.03012300e-01
      -11 -1    0    0    0    0 +0.0000000000e+00 +0.0000000000e+00 +1.2000000000e+02 1.2000000000e+02 0.0000000000e+00 0.0000e+00 -1.0000e+00
       11 -1    0    0    0    0 -0.0000000000e+00 -0.0000000000e+00 -1.2000000000e+02 1.2000000000e+02 0.0000000000e+00 0.0000e+00 1.0000e+00
       23  2    1    2    0    0 +3.7998053830e+01 -2.5064454826e+01 +1.9884864194e+01 1.0549232425e+02 9.3065265599e+01 0.0000e+00 0.0000e+00
       25  2    1    2    0    0 -3.7998053830e+01 +2.5064454826e+01 -1.9884864194e+01 1.3450767575e+02 1.2499931208e+02 0.0000e+00 0.0000e+00
      -11  1    3    3    0    0 +2.0262135250e+01 +3.1187237284e+01 -1.1173040719e+01 3.8833422888e+01 0.0000000000e+00 0.0000e+00 -1.0000e+00
       11  1    3    3    0    0 +1.7735918580e+01 -5.6251692110e+01 +3.1057904912e+01 6.6658901361e+01 0.0000000000e+00 0.0000e+00 1.0000e+00
        5  1    4    4  501    0 -5.7279094320e+00 +2.4888531945e+01 +2.8714749455e+01 3.8715304533e+01 4.7000000000e+00 0.0000e+00 1.0000e+00
       -5  1    4    4    0  502 -9.9101397201e+00 -9.3577750099e+00 -2.6861722652e+01 3.0486406253e+01 4.7000000000e+00 0.0000e+00 -1.0000e+00
        5  1    4    4  502    0 -1.1864887694e+01 +6.3742719310e+00 -4.0575887987e+01 4.3010459060e+01 4.7000000000e+00 0.0000e+00 -1.0000e+00
       -5  1    4    4    0  501 -1.0495116984e+01 +3.1594259593e+00 +1.8837996991e+01 2.2295505904e+01 4.7000000000e+00 0.0000e+00 1.0000e+00
</event>
<event>
10      1 +4.6527485e-10 2.40000000e+02 7.81860800e-03 1.03012300e-01
      -11 -1    0    0    0    0 +0.0000000000e+00 +0.0000000000e+00 +1.2000000000e+02 1.2000000000e+02 0.0000000000e+00 0.0000e+00 1.0000e+00
       11 -1    0    0    0    0 -0.0000000000e+00 -0.0000000000e+00 -1.2000000000e+02 1.2000000000e+02 0.0000000000e+00 0.0000e+00 -1.0000e+00
       23  2    1    2    0    0 -5.4500012097e+00 +3.7163035500e+01 +2.2593062082e+01 1.0753729364e+02 9.8198927425e+01 0.0000e+00 0.0000e+00
       25  2    1    2    0    0 +5.4500012097e+00 -3.7163035500e+01 -2.2593062082e+01 1.3246270636e+02 1.2500051361e+02 0.0000e+00 0.0000e+00
      -11  1    3    3    0    0 +2.0243914615e+01 +2.6449087666e+01 +5.5319365891e+01 6.4572459764e+01 0.0000000000e+00 0.0000e+00 1.0000e+00
       11  1    3    3    0    0 -2.5693915825e+01 +1.0713947834e+01 -3.2726303809e+01 4.2964833872e+01 0.0000000000e+00 0.0000e+00 -1.0000e+00
        5  1    4    4  501    0 +2.9513122746e+01 -8.4628155774e+00 +1.5748775255e+00 3.1100062716e+01 4.7000000000e+00 0.0000e+00 1.0000e+00
       -5  1    4    4    0  502 -2.1989270740e+00 +2.6392758267e+00 -4.3812438890e+00 7.2860383736e+00 4.7000000000e+00 0.0000e+00 1.0000e+00
        5  1    4    4  502    0 -4.4971323815e+01 -3.4815565940e+01 -3.3899935933e+01 6.6376496245e+01 4.7000000000e+00 0.0000e+00 -1.0000e+00
       -5  1    4    4    0  501 +2.3107129353e+01 +3.4760701908e+00 +1.4113240215e+01 2.7700109030e+01 4.7000000000e+00 0.0000e+00 1.0000e+00
</event>
<event>
10      1 +4.6527485e-10 2.40000000e+02 7.81860800e-03 1.03012300e-01
      -11 -1    0    0    0    0 +0.0000000000e+00 +0.0000000000e+00 +1.2000000000e+02 1.2000000000e+02 0.0000000000e+00 0.0000e+00 1.0000e+00
       11 -1    0    0    0    0 -0.0000000000e+00 -0.0000000000e+00 -1.2000000000e+02 1.2000000000e+02 0.0000000000e+00 0.0000e+00 -1.0000e+00
       23  2    1    2    0    0 +3.5831238226e+01 -1.9250900836e+01 -3.1484294568e+01 1.0483173756e+02 9.1345265777e+01 0.0000e+00 0.0000e+00
       25  2    1    2    0    0 -3.5831238226e+01 +1.9250900836e+01 +3.1484294568e+01 1.3516826244e+02 1.2499889420e+02 0.0000e+00 0.0000e+00
      -11  1    3    3    0    0 -1.2561218429e+01 -4.3654709678e+01 -9.8869176744e+00 4.6489450703e+01 0.0000000000e+00 0.0000e+00 1.0000e+00
       11  1    3    3    0    0 +4.8392456655e+01 +2.4403808843e+01 -2.1597376894e+01 5.8342286858e+01 0.0000000000e+00 0.0000e+00 -1.0000e+00
        5  1    4    4  501    0 -2.4420475203e+01 +4.8157671699e+01 -2.7851908330e+01 6.0937178719e+01 4.7000000000e+00 0.0000e+00 -1.0000e+00
       -5  1    4    4    0  502 -7.4705948267e+00 -1.9315050816e+01 +1.6291758394e+01 2.6765507031e+01 4.7000000000e+00 0.0000e+00 -1.0000e+00
        5  1    4    4  502    0 -2.2829546040e+00 -1.0631028641e+01 +3.9562592514e+01 4.1297934308e+01 4.7000000000e+00 0.0000e+00 -1.0000e+00
       -5  1    4    4    0  501 -1.6572135919e+00 +1.0393085935e+00 +3.4818519907e+00 6.1676423800e+00 4.7000000000e+00 0.0000e+00 1.0000e+00
</event>
<event>
10      1 +4.6527485e-10 2.40000000e+02 7.81860800e-03 1.03012300e-01
      -11 -1    0    0    0    0 +0.0000000000e+00 +0.0000000000e+00 +1.2000000000e+02 1.2000000000e+02 0.0000000000e+00 0.0000e+00 1.0000e+00
       11 -1    0    0    0    0 -0.0000000000e+00 -0.0000000000e+00 -1.2000000000e+02 1.2000000000e+02 0.0000000000e+00 0.0000e+00 -1.0000e+00
       23  2    1    2    0    0 -4.8031735078e+01 +2.4843049909e+01 -1.2970186261e+01 1.0317695559e+02 8.6908191381e+01 0.0000e+00 0.0000e+00
       25  2    1    2    0    0 +4.8031735078e+01 -2.4843049909e+01 +1.2970186261e+01 1.3682304441e+02 1.2501237958e+02 0.0000e+00 0.0000e+00
      -11  1    3    3    0    0 +7.4252867006e+00 +3.3546992513e+01 -2.8820847186e+01 4.4846146119e+01 0.0000000000e+00 0.0000e+00 -1.0000e+00
       11  1    3    3    0    0 -5.5457021779e+01 -8.7039426035e+00 +1.5850660924e+01 5.8330809468e+01 0.0000000000e+00 0.0000e+00 1.0000e+00
        5  1    4    4  501    0 +1.3441846955e+01 +1.4941251882e+01 +4.5351927903e+01 4.9827819758e+01 4.7000000000e+00 0.0000e+00 1.0000e+00
       -5  1    4    4    0  501 -2.0828702641e+00 +2.3537936559e+00 +1.0778642692e+01 1.2171599377e+01 4.7000000000e+00 0.0000e+00 1.0000e+00
        5  1    4    4  502    0 +2.3325489209e+01 -3.9243251648e+01 -3.7662776493e+01 5.9369065850e+01 4.7000000000e+00 0.0000e+00 -1.0000e+00
       -5  1    4    4    0  502 +1.3347269179e+01 -2.8948437992e+00 -5.4976078398e+00 1.5454559428e+01 4.7000000000e+00 0.0000e+00 -1.0000e+00
</event>
<event>
10      1 +4.6527485e-10 2.40000000e+02 7.81860800e-03 1.03012300e-01
      -11 -1    0    0    0    0 +0.0000000000e+00 +0.0000000000e+00 +1.2000000000e+02 1.2000000000e+02 0.0000000000e+00 0.0000e+00 -1.0000e+00
       11 -1    0    0    0    0 -0.0000000000e+00 -0.0000000000e+00 -1.2000000000e+02 1.2000000000e+02 0.0000000000e+00 0.0000e+00 1.0000e+00
       23  2    1    2    0    0 -5.1652727122e+00 +3.7242409125e+01 -3.4756727401e+01 1.0491959258e+02 9.1577364716e+01 0.0000e+00 0.0000e+00
       25  2    1    2    0    0 +5.1652727122e+00 -3.7242409125e+01 +3.4756727401e+01 1.3508040742e+02 1.2500003715e+02 0.0000e+00 0.0000e+00
      -13  1    3    3    0    0 +3.9536762345e+01 +2.6493840049e+01 -3.4774320157e+01 5.8943468507e+01 0.0000000000e+00 0.0000e+00 1.0000e+00
       13  1    3    3    0    0 -4.4702035058e+01 +1.0748569077e+01 +1.7592755989e-02 4.5976124075e+01 0.0000000000e+00 0.0000e+00 -1.0000e+00
        5  1    4    4  501    0 +2.7113561643e+00 +4.2912659610e+00 +3.2455677034e+00 7.6413431748e+00 4.7000000000e+00 0.0000e+00 1.0000e+00
       -5  1    4    4    0  502 -1.5642665098e+01 -2.8213330964e+01 +4.2832403023e+01 5.3827407184e+01 4.7000000000e+00 0.0000e+00 -1.0000e+00
        5  1    4    4  502    0 +1.2860485933e+01 +1.8967210510e+00 -3.8930026150e+01 4.1311337248e+01 4.7000000000e+00 0.0000e+00 -1.0000e+00
       -5  1    4    4    0  501 +5.2360957129e+00 -1.5217065173e+01 +2.7608782825e+01 3.2300319810e+01 4.7000000000e+00 0.0000e+00 1.0000e+00
</event>
<event>
10      1 +4.6527485e-10 2.40000000e+02 7.81860800e-03 1.03012300e-01
      -11 -1    0    0    0    0 +0.0000000000e+00 +0.0000000000e+00 +1.2000000000e+02 1.2000000000e+02 0.0000000000e+00 0.0000e+00 1.0000e+00
       11 -1    0    0    0    0 -0.0000000000e+00 -0.0000000000e+00 -1.2000000000e+02 1.2000000000e+02 0.0000000000e+00 0.0000e+00 -1.0000e+00
       23  2    1    2    0    0 -1.1189999378e+00 -2.6016347992e+01 -4.4338932985e+01 1.0483670249e+02 9.1360224861e+01 0.0000e+00 0.0000e+00
       25  2    1    2    0    0 +1.1189999378e+00 +2.6016347992e+01 +4.4338932985e+01 1.3516329751e+02 1.2500029397e+02 0.0000e+00 0.0000e+00
      -11  1    3    3    0    0 +8.7871252097e+00 +2.2310450993e+01 -4.9732259098e+01 5.5211116525e+01 0.0000000000e+00 0.0000e+00 -1.0000e+00
       11  1    3    3    0    0 -9.9061251475e+00 -4.8326798985e+01 +5.3933261129e+00 4.9625585963e+01 0.0000000000e+00 0.0000e+00 1.0000e+00
        5  1    4    4  501    0 -2.0124614486e+00 -2.2657795516e+00 -9.4849333044e-01 5.6721598758e+00 4.7000000000e+00 0.0000e+00 1.0000e+00
       -5  1    4    4    0  502 -6.8117740092e-01 +2.2293668614e+00 +3.9190467444e+01 3.9540065980e+01 4.7000000000e+00 0.0000e+00 -1.0000e+00
        5  1    4    4  502    0 +4.1690305866e+00 +3.2103112517e+01 +4.2001065044e+01 5.3236924349e+01 4.7000000000e+00 0.0000e+00 -1.0000e+00
       -5  1    4    4    0  501 -3.5639179933e-01 -6.0503518344e+00 -3.5904106173e+01 3.6714147307e+01 4.7000000000e+00 0.0000e+00 1.0000e+00
</event>
<event>
10      1 +4.6527485e-10 2.40000000e+02 7.81860800e-03 1.03012300e-01
      -11 -1    0    0    0    0 +0.0000000000e+00 +0.0000000000e+00 +1.2000000000e+02 1.2000000000e+02 0.0000000000e+00 0.0000e+00 -1.0000e+00
       11 -1    0    0    0    0 -0.0000000000e+00 -0.0000000000e+00 -1.2000000000e+02 1.2000000000e+02 0.0000000000e+00 0.0000e+00 1.0000e+00
       23  2    1    2    0    0 +1.3619582548e+01 +2.0738887688e+01 -4.4093922723e+01 1.0513860766e+02 9.2164300623e+01 0.0000e+00 0.0000e+00
       25  2    1    2    0    0 -1.3619582548e+01 -2.0738887688e+01 +4.4093922723e+01 1.3486139234e+02 1.2501090605e+02 0.0000e+00 0.0000e+00
      -11  1    3    3    0    0 +6.7068557114e+00 +5.7537316261e+01 -2.8831145285e+01 6.4705174557e+01 0.0000000000e+00 0.0000e+00 -1.0000e+00
       11  1    3    3    0    0 +6.9127268362e+00 -3.6798428573e+01 -1.5262777438e+01 4.0433433107e+01 0.0000000000e+00 0.0000e+00 1.0000e+00
        5  1    4    4  501    0 +1.0819075600e+01 +2.1972900741e+01 +4.1007823366e+01 4.7995753365e+01 4.7000000000e+00 0.0000e+00 -1.0000e+00
       -5  1    4    4    0  502 -1.5147034404e+01 -2.8202375283e+01 -1.3178200413e+01 3.4936536590e+01 4.7000000000e+00 0.0000e+00 1.0000e+00
        5  1    4    4  502    0 -1.2953421256e+01 -9.9547131810e+00 -1.3201800493e+01 2.1523591080e+01 4.7000000000e+00 0.0000e+00 1.0000e+00
       -5  1    4    4    0  501 +3.6617975117e+00 -4.5546999657e+00 +2.9466100262e+01 3.0405511300e+01 4.7000000000e+00 0.0000e+00 -1.0000e+00
</event>
<event>
10      1 +4.6527485e-10 2.40000000e+02 7.81860800e-03 1.03012300e-01
      -11 -1    0    0    0    0 +0.0000000000e+00 +0.0000000000e+00 +1.2000000000e+02 1.2000000000e+02 0.0000000000e+00 0.0000e+00 1.0000e+00
       11 -1    0    0    0    0 -0.0000000000e+00 -0.0000000000e+00 -1.2000000000e+02 1.2000000000e+02 0.0000000000e+00 0.0000e+00 -1.0000e+00
       23  2    1    2    0    0 +7.9921657126e+00 -8.7672365237e+00 +5.0524861343e+01 1.0465497834e+02 9.0879941287e+01 0.0000e+00 0.0000e+00
       25  2    1    2    0    0 -7.9921657126e+00 +8.7672365237e+00 -5.0524861343e+01 1.3534502166e+02 1.2499909650e+02 0.0000e+00 0.0000e+00
      -13  1    3    3    0    0 -2.0566521006e+01 -5.3963194573e+00 +6.7835525568e+01 7.1089806436e+01 0.0000000000e+00 0.0000e+00 1.0000e+00
       13  1    3    3    0    0 +2.8558686719e+01 -3.3709170664e+00 -1.7310664225e+01 3.3565171903e+01 0.0000000000e+00 0.0000e+00 -1.0000e+00
        5  1    4    4  501    0 -9.2706135918e+00 -3.1336666643e-01 -1.6608742185e+00 1.0530478536e+01 4.7000000000e+00 0.0000e+00 -1.0000e+00
       -5  1    4    4    0  501 -2.5638654076e+01 -9.1907727851e+00 +2.8268020571e+01 3.9534565562e+01 4.7000000000e+00 0.0000e+00 -1.0000e+00
        5  1    4    4  502    0 +1.2576835382e+01 +2.4414695374e+00 -3.9034549812e+01 4.1351222966e+01 4.7000000000e+00 0.0000e+00 -1.0000e+00
       -5  1    4    4    0  502 +1.4340266573e+01 +1.5829906438e+01 -3.8097457883e+01 4.3928754596e+01 4.7000000000e+00 0.0000e+00 -1.0000e+00
</event>
<event>
10      1 +4.6527485e-10 2.40000000e+02 7.81860800e-03 1.03012300e-01
      -11 -1    0    0    0    0 +0.0000000000e+00 +0.0000000000e+00 +1.2000000000e+02 1.2000000000e+02 0.0000000000e+00 0.0000e+00 -1.0000e+00
       11 -1    0    0    0    0 -0.0000000000e+00 -0.0000000000e+00 -1.2000000000e+02 1.2000000000e+02 0.0000000000e+00 0.0000e+00 1.0000e+00
       23  2    1    2    0    0 +1.3376797496e+01 -4.8226660392e+01 -3.0172488152e+00 1.0531983518e+02 9.2619730120e+01 0.0000e+00 0.0000e+00
       25  2    1    2    0    0 -1.3376797496e+01 +4.8226660392e+01 +3.0172488152e+00 1.3468016482e+02 1.2499957409e+02 0.0000e+00 0.0000e+00
      -13  1    3    3    0    0 -7.1923132873e+00 -3.3873685208e+01 -4.4777958022e+01 5.6605842849e+01 0.0000000000e+00 0.0000e+00 1.0000e+00
       13  1    3    3    0    0 +2.0569110783e+01 -1.4352975184e+01 +4.1760709207e+01 4.8713992328e+01 0.0000000000e+00 0.0000e+00 -1.0000e+00
        5  1    4    4  501    0 -1.7526774170e+01 +2.5822894563e+01 -9.2268573220e+00 3.2882131811e+01 4.7000000000e+00 0.0000e+00 -1.0000e+00
       -5  1    4    4    0  502 +2.0830858729e+01 +9.7303640876e+00 -4.4694889141e+00 2.3888721017e+01 4.7000000000e+00 0.0000e+00 -1.0000e+00
        5  1    4    4  502    0 +2.3402501763e+01 -7.1695866024e+00 -8.5225832763e+00 2.6340168688e+01 4.7000000000e+00 0.0000e+00 -1.0000e+00
       -5  1    4    4    0  501 -4.0083383819e+01 +1.9842988343e+01 +2.5236178328e+01 5.1569143306e+01 4.7000000000e+00 0.0000e+00 -1.0000e+00
</event>
<event>
10      1 +4.6527485e-10 2.40000000e+02 7.81860800e-03 1.03012300e-01
      -11 -1    0    0    0    0 +0.0000000000e+00 +0.0000000000e+00 +1.2000000000e+02 1.2000000000e+02 0.0000000000e+00 0.0000e+00 1.0000e+00
       11 -1    0    0    0    0 -0.0000000000e+00 -0.0000000000e+00 -1.2000000000e+02 1.2000000000e+02 0.0000000000e+00 0.0000e+00 -1.0000e+00
       23  2    1    2    0    0 -2.1068080837e+01 -2.4508470494e+01 -4.1030542505e+01 1.0452783995e+02 9.0542999459e+01 0.0000e+00 0.0000e+00
       25  2    1    2    0    0 +2.1068080837e+01 +2.4508470494e+01 +4.1030542505e+01 1.3547216005e+02 1.2499868629e+02 0.0000e+00 0.0000e+00
      -13  1    3    3    0    0 -2.3118502481e+01 -8.6913631156e+00 +2.5861498761e+01 3.5760621750e+01 0.0000000000e+00 0.0000e+00 1.0000e+00
       13  1    3    3    0    0 +2.0504216433e+00 -1.5817107379e+01 -6.6892041266e+01 6.8767218204e+01 0.0000000000e+00 0.0000e+00 -1.0000e+00
        5  1    4    4  501    0 -5.2368307501e+00 +1.0346780444e+01 +9.4104829021e+00 1.5656546564e+01 4.7000000000e+00 0.0000e+00 1.0000e+00
       -5  1    4    4    0  502 +1.8869938837e+01 -3.4399576729e+00 +2.7021120939e+00 1.9932368406e+01 4.7000000000e+00 0.0000e+00 -1.0000e+00
        5  1    4    4  502    0 +2.1660891629e+01 -3.3224238657e+01 +2.4169166919e+01 4.6682790084e+01 4.7000000000e+00 0.0000e+00 -1.0000e+00
       -5  1    4    4    0  501 -1.4225918879e+01 +5.0825886380e+01 +4.7487805902e+00 5.3200454992e+01 4.7000000000e+00 0.0000e+00 1.0000e+00
</event>
<event>
10      1 +4.6527485e-10 2.40000000e+02 7.81860800e-03 1.03012300e-01
      -11 -1    0    0    0    0 +0.0000000000e+00 +0.0000000000e+00 +1.2000000000e+02 1.2000000000e+02 0.0000000000e+00 0.0000e+00 -1.0000e+00
       11 -1    0    0    0    0 -0.0000000000e+00 -0.0000000000e+00 -1.2000000000e+02 1.2000000000e+02 0.0000000000e+00 0.0000e+00 1.0000e+00
       23  2    1    2    0    0 +1.6988277376e+01 +4.1450718593e+01 -4.0626235222e+01 1.0114336388e+02 8.1072346878e+01 0.0000e+00 0.0000e+00
       25  2    1    2    0    0 -1.6988277376e+01 -4.1450718593e+01 +4.0626235222e+01 1.3885663612e+02 1.2499564299e+02 0.0000e+00 0.0000e+00
      -11  1    3    3    0    0 +9.1963157813e+00 -5.7485198411e-01 -5.5216390204e+01 5.5979928777e+01 0.0000000000e+00 0.0000e+00 1.0000e+00
       11  1    3    3    0    0 +7.7919615949e+00 +4.2025570577e+01 +1.4590154982e+01 4.5163435102e+01 0.0000000000e+00 0.0000e+00 -1.0000e+00
        5  1    4    4  501    0 -2.7485784925e+01 -4.9004509672e+01 -2.8432278540e+01 6.3145821747e+01 4.7000000000e+00 0.0000e+00 -1.0000e+00
       -5  1    4    4    0  501 +5.6336267715e+00 +5.5723390757e+00 +5.1416889592e+01 5.2235765991e+01 4.7000000000e+00 0.0000e+00 -1.0000e+00
        5  1    4    4  502    0 +6.7717023834e+00 +4.6793306923e+00 +8.8192286543e+00 1.2946848379e+01 4.7000000000e+00 0.0000e+00 1.0000e+00
       -5  1    4    4    0  502 -1.9078216061e+00 -2.6978786889e+00 +8.8223955151e+00 1.0528200004e+01 4.7000000000e+00 0.0000e+00 -1.0000e+00
</event>
<event>
10      1 +4.6527485e-10 2.40000000e+02 7.81860800e-03 1.03012300e-01
      -11 -1    0    0    0    0 +0.0000000000e+00 +0.0000000000e+00 +1.2000000000e+02 1.2000000000e+02 0.0000000000e+00 0.0000e+00 1.0000e+00
       11 -1    0    0    0    0 -0.0000000000e+00 -0.0000000000e+00 -1.2000000000e+02 1.2000000000e+02 0.0000000000e+00 0.0000e+00 -1.0000e+00
       23  2    1    2    0    0 -3.9922557970e+01 -2.7531236425e+01 +4.6480823194e+00 1.0584164832e+02 9.3963132327e+01 0.0000e+00 0.0000e+00
       25  2    1    2    0    0 +3.9922557970e+01 +2.7531236425e+01 -4.6480823194e+00 1.3415835168e+02 1.2500031616e+02 0.0000e+00 0.0000e+00
      -11  1    3    3    0    0 -3.5150791478e+00 +2.5942167932e+01 +2.6798675940e+01 3.7463594203e+01 0.0000000000e+00 0.0000e+00 1.0000e+00
       11  1    3    3    0    0 -3.6407478822e+01 -5.3473404356e+01 -2.2150593621e+01 6.8378054121e+01 0.0000000000e+00 0.0000e+00 -1.0000e+00
        5  1    4    4  501    0 +4.1290693768e+00 -5.2965906523e+00 -1.3384835872e+00 8.3056983312e+00 4.7000000000e+00 0.0000e+00 1.0000e+00
       -5  1    4    4    0  502 -9.3637071370e+00 +5.6477554487e+01 -2.6649843884e+00 5.7502915700e+01 4.7000000000e+00 0.0000e+00 1.0000e+00
        5  1    4    4  502    0 +2.3154132127e+00 +1.0390275919e+01 +5.8897383782e+00 1.3042162021e+01 4.7000000000e+00 0.0000e+00 1.0000e+00
       -5  1    4    4    0  501 +4.2841782518e+01 -3.4040003329e+01 -6.5343527220e+00 5.5307575624e+01 4.7000000000e+00 0.0000e+00 -1.0000e+00
</event>
<event>
10      1 +4.6527485e-10 2.40000000e+02 7.81860800e-03 1.03012300e-01
      -11 -1    0    0    0    0 +0.0000000000e+00 +0.0000000000e+00 +1.2000000000e+02 1.2000000000e+02 0.0000000000e+00 0.0000e+00 1.0000e+00
       11 -1    0    0    0    0 -0.0000000000e+00 -0.0000000000e+00 -1.2000000000e+02 1.2000000000e+02 0.0000000000e+00 0.0000e+00 -1.0000e+00
       23  2    1    2    0    0 -1.5574700251e-01 -5.0629432351e+01 -3.1721645281e+00 1.0509959381e+02 9.2046174906e+01 0.0000e+00 0.0000e+00
       25  2    1    2    0    0 +1.5574700251e-01 +5.0629432351e+01 +3.1721645281e+00 1.3490040619e+02 1.2499877313e+02 0.0000e+00 0.0000e+00
      -11  1    3    3    0    0 +1.9842594853e+01 -8.7016781044e+00 -4.0218386062e+01 4.5683326824e+01 0.0000000000e+00 0.0000e+00 -1.0000e+00
       11  1    3    3    0    0 -1.9998341856e+01 -4.1927754247e+01 +3.7046221533e+01 5.9416266991e+01 0.0000000000e+00 0.0000e+00 1.0000e+00
        5  1    4    4  501    0 -1.5019897936e+00 +3.9059842080e+01 -9.5418184258e+00 4.0510042403e+01 4.7000000000e+00 0.0000e+00 -1.0000e+00
       -5  1    4    4    0  501 +1.2656197318e+01 +4.9443861666e+01 +1.5116460961e+00 5.1276211453e+01 4.7000000000e+00 0.0000e+00 -1.0000e+00
        5  1    4    4  502    0 -7.8295228652e+00 -2.1563784644e+01 +1.8852802116e+00 2.3493456917e+01 4.7000000000e+00 0.0000e+00 -1.0000e+00
       -5  1    4    4    0  502 -3.1689376563e+00 -1.6310486751e+01 +9.3170566463e+00 1.9620695412e+01 4.7000000000e+00 0.0000e+00 -1.0000e+00
</event>
<event>
10      1 +4.6527485e-10 2.40000000e+02 7.81860800e-03 1.03012300e-01
      -11 -1    0    0    0    0 +0.0000000000e+00 +0.0000000000e+00 +1.2000000000e+02 1.2000000000e+02 0.0000000000e+00 0.0000e+00 1.0000e+00
       11 -1    0    0    0    0 -0.0000000000e+00 -0.0000000000e+00 -1.2000000000e+02 1.2000000000e+02 0.0000000000e+00 0.0000e+00 -1.0000e+00
       23  2    1    2    0    0 -4.5757291191e+01 +1.8006137216e+00 +1.2452704683e+01 1.0629356344e+02 9.5111933366e+01 0.0000e+00 0.0000e+00
       25  2    1    2    0    0 +4.5757291191e+01 -1.8006137216e+00 -1.2452704683e+01 1.3370643656e+02 1.2500147766e+02 0.0000e+00 0.0000e+00
      -11  1    3    3    0    0 +2.7920978579e+01 +1.4223079540e+00 -9.3114934875e+00 2.9467064932e+01 0.0000000000e+00 0.0000e+00 -1.0000e+00
       11  1    3    3    0    0 -7.3678269770e+01 +3.7830576760e-01 +2.1764198170e+01 7.6826498511e+01 0.0000000000e+00 0.0000e+00 1.0000e+00
        5  1    4    4  501    0 +5.4117622947e+00 +3.8138693019e-01 +3.0363724255e+00 7.7937272618e+00 4.7000000000e+00 0.0000e+00 -1.0000e+00
       -5  1    4    4    0  501 +2.4989637917e+01 -6.7567084050e+00 +4.8960898644e+01 5.5582323698e+01 4.7000000000e+00 0.0000e+00 -1.0000e+00
        5  1    4    4  502    0 +8.7295820645e+00 +1.2238499148e+01 -2.7081365171e+01 3.1328530191e+01 4.7000000000e+00 0.0000e+00 -1.0000e+00
       -5  1    4    4    0  502 +6.6263089152e+00 -7.6637913948e+00 -3.7368610581e+01 3.9001855406e+01 4.7000000000e+00 0.0000e+00 -1.0000e+00
</event>
<event>
10      1 +4.6527485e-10 2.40000000e+02 7.81860800e-03 1.03012300e-01
      -11 -1    0    0    0    0 +0.0000000000e+00 +0.0000000000e+00 +1.2000000000e+02 1.2000000000e+02 0.0000000000e+00 0.0000e+00 1.0000e+00
       11 -1    0    0    0    0 -0.0000000000e+00 -0.0000000000e+00 -1.2000000000e+02 1.2000000000e+02 0.0000000000e+00 0.0000e+00 -1.0000e+00
       23  2    1    2    0    0 -5.1216459461e+01 +4.2757047943e+00 -2.5102583858e+00 1.0482470849e+02 9.1326396740e+01 0.0000e+00 0.0000e+00
       25  2    1    2    0    0 +5.1216459461e+01 -4.2757047943e+00 +2.5102583858e+00 1.3517529151e+02 1.2499860266e+02 0.0000e+00 0.0000e+00
      -13  1    3    3    0    0 -1.6086499395e+00 -8.0421153291e+00 +3.8455337883e+01 3.9320177839e+01 0.0000000000e+00 0.0000e+00 1.0000e+00
       13  1    3    3    0    0 -4.9607809521e+01 +1.2317820123e+01 -4.0965596269e+01 6.5504530651e+01 0.0000000000e+00 0.0000e+00 -1.0000e+00
        5  1    4    4  501    0 +8.6880162541e+00 -4.8265444575e+00 +3.0726349870e+00 1.1415263624e+01 4.7000000000e+00 0.0000e+00 1.0000e+00
       -5  1    4    4    0  502 +1.3616069210e+01 +2.8630529604e+01 -2.2078696328e+01 3.8918676720e+01 4.7000000000e+00 0.0000e+00 1.0000e+00
        5  1    4    4  502    0 +7.3349081325e+00 +8.5955248418e+00 -2.1127337154e+01 2.4415943558e+01 4.7000000000e+00 0.0000e+00 1.0000e+00
       -5  1    4    4    0  501 +2.1577465864e+01 -3.6675214782e+01 +4.2643656881e+01 6.0425407608e+01 4.7000000000e+00 0.0000e+00 1.0000e+00
</event>
<event>
10      1 +4.6527485e-10 2.40000000e+02 7.81860800e-03 1.03012300e-01
      -11 -1    0    0    0    0 +0.0000000000e+00 +0.0000000000e+00 +1.2000000000e+02 1.2000000000e+02 0.0000000000e+00 0.0000e+00 1.0000e+00
       11 -1    0    0    0    0 -0.0000000000e+00 -0.0000000000e+00 -1.2000000000e+02 1.2000000000e+02 0.0000000000e+00 0.0000e+00 -1.0000e+00
       23  2    1    2    0    0 +2.4067569001e+00 -4.5185669167e+01 -2.3448267845e+01 1.0500017934e+02 9.1802392230e+01 0.0000e+00 0.0000e+00
       25  2    1    2    0    0 -2.4067569001e+00 +4.5185669167e+01 +2.3448267845e+01 1.3499982066e+02 1.2501037212e+02 0.0000e+00 0.0000e+00
      -13  1    3    3    0    0 -1.2620790810e+01 -5.8813180150e+01 -4.5211260142e+01 7.5248472169e+01 0.0000000000e+00 0.0000e+00 -1.0000e+00
       13  1    3    3    0    0 +1.5027547710e+01 +1.3627510983e+01 +2.1762992298e+01 2.9751707170e+01 0.0000000000e+00 0.0000e+00 1.0000e+00
        5  1    4    4  501    0 +1.5972147314e+01 +3.9016951908e+01 +4.1129835176e+01 5.9086253626e+01 4.7000000000e+00 0.0000e+00 1.0000e+00
       -5  1    4    4    0  502 -1.2841348359e+01 -8.4207818430e+00 -2.0757036388e+01 2.6244129899e+01 4.7000000000e+00 0.0000e+00 1.0000e+00
        5  1    4    4  502    0 +2.9064379729e+00 +2.1006218888e+00 -2.0476878037e+01 2.1313200796e+01 4.7000000000e+00 0.0000e+00 1.0000e+00
       -5  1    4    4    0  501 -8.4439938278e+00 +1.2488877214e+01 +2.3552347094e+01 2.8356236341e+01 4.7000000000e+00 0.0000e+00 1.0000e+00
</event>
<event>
10      1 +4.6527485e-10 2.40000000e+02 7.81860800e-03 1.03012300e-01
      -11 -1    0    0    0    0 +0.0000000000e+00 +0.0000000000e+00 +1.2000000000e+02 1.2000000000e+02 0.0000000000e+00 0.0000e+00 -1.0000e+00
       11 -1    0    0    0    0 -0.0000000000e+00 -0.0000000000e+00 -1.2000000000e+02 1.2000000000e+02 0.0000000000e+00 0.0000e+00 1.0000e+00
       23  2    1    2    0    0 +5.0329038361e+01 -1.0425605078e+01 +1.0971940572e+01 1.0440194320e+02 9.0209073378e+01 0.0000e+00 0.0000e+00
       25  2    1    2    0    0 -5.0329038361e+01 +1.0425605078e+01 -1.0971940572e+01 1.3559805680e+02 1.2499897674e+02 0.0000e+00 0.0000e+00
      -11  1    3    3    0    0 +3.3245862959e+01 +2.3845530973e+01 +3.9330233981e+01 5.6751775798e+01 0.0000000000e+00 0.0000e+00 1.0000e+00
       11  1    3    3    0    0 +1.7083175403e+01 -3.4271136050e+01 -2.8358293409e+01 4.7650167399e+01 0.0000000000e+00 0.0000e+00 -1.0000e+00
        5  1    4    4  501    0 -2.1901716222e+01 -5.9575138561e-02 +8.0785747420e+00 2.3812645643e+01 4.7000000000e+00 0.0000e+00 1.0000e+00
       -5  1    4    4    0  502 -1.4342829281e+01 -1.3662088545e+01 -5.5145820611e+01 5.8783679249e+01 4.7000000000e+00 0.0000e+00 1.0000e+00
        5  1    4    4  502    0 -4.8243964229e-01 +1.3903785418e+01 +2.2936199219e+00 1.4862660909e+01 4.7000000000e+00 0.0000e+00 -1.0000e+00
       -5  1    4    4    0  501 -1.3602053216e+01 +1.0243483344e+01 +3.3801685375e+01 3.8139071002e+01 4.7000000000e+00 0.0000e+00 -1.0000e+00
</event>
<event>
10      1 +4.6527485e-10 2.40000000e+02 7.81860800e-03 1.03012300e-01
      -11 -1    0    0    0    0 +0.0000000000e+00 +0.0000000000e+00 +1.2000000000e+02 1.2000000000e+02 0.0000000000e+00 0.0000e+00 1.0000e+00
       11 -1    0    0    0    0 -0.0000000000e+00 -0.0000000000e+00 -1.2000000000e+02 1.2000000000e+02 0.0000000000e+00 0.0000e+00 -1.0000e+00
       23  2    1    2    0    0 +4.3488006649e+01 +4.3185790335e+00 -2.5457614103e+01 1.0515546071e+02 9.2193947497e+01 0.0000e+00 0.0000e+00
       25  2    1    2    0    0 -4.3488006649e+01 -4.3185790335e+00 +2.5457614103e+01 1.3484453929e+02 1.2500041125e+02 0.0000e+00 0.0000e+00
      -13  1    3    3    0    0 +7.1520557024e+01 +1.2295711832e+01 -1.4411290155e+01 7.3986889990e+01 0.0000000000e+00 0.0000e+00 -1.0000e+00
       13  1    3    3    0    0 -2.8032550375e+01 -7.9771327986e+00 -1.1046323948e+01 3.1168570724e+01 0.0000000000e+00 0.0000e+00 1.0000e+00
        5  1    4    4  501    0 +7.4918225427e+00 +2.5878367875e+00 +2.8420255244e-01 9.2192773763e+00 4.7000000000e+00 0.0000e+00 -1.0000e+00
       -5  1    4    4    0  501 +1.3149029543e+01 -3.9158580940e+01 -1.0018919766e+01 4.2764005804e+01 4.7000000000e+00 0.0000e+00 -1.0000e+00
        5  1    4    4  502    0 -1.3581351232e+01 +3.6140157296e-01 +1.1454314757e+01 1.8381377504e+01 4.7000000000e+00 0.0000e+00 1.0000e+00
       -5  1    4    4    0  502 -5.0547507503e+01 +3.1890763546e+01 +2.3738016559e+01 6.4479878601e+01 4.7000000000e+00 0.0000e+00 1.0000e+00
</event>
<event>
10      1 +4.6527485e-10 2.40000000e+02 7.81860800e-03 1.03012300e-01
      -11 -1    0    0    0    0 +0.0000000000e+00 +0.0000000000e+00 +1.2000000000e+02 1.2000000000e+02 0.0000000000e+00 0.0000e+00 -1.0000e+00
       11 -1    0    0    0    0 -0.0000000000e+00 -0.0000000000e+00 -1.2000000000e+02 1.2000000000e+02 0.0000000000e+00 0.0000e+00 1.0000e+00
       23  2    1    2    0    0 +8.6805889749e-02 -4.3463462047e+01 -1.0327124433e+01 1.0721907572e+02 9.7468972657e+01 0.0000e+00 0.0000e+00
       25  2    1    2    0    0 -8.6805889749e-02 +4.3463462047e+01 +1.0327124433e+01 1.3278092428e+02 1.2504017069e+02 0.0000e+00 0.0000e+00
      -13  1    3    3    0    0 -2.2394913343e+01 -4.2363500732e+01 +3.3145391474e+01 5.8265043671e+01 0.0000000000e+00 0.0000e+00 -1.0000e+00
       13  1    3    3    0    0 +2.2481719233e+01 -1.0999613142e+00 -4.3472515907e+01 4.8954032049e+01 0.0000000000e+00 0.0000e+00 1.0000e+00
        5  1    4    4  501    0 -2.7576246967e+01 -1.1495036327e+01 -9.2763183421e+00 3.1634243138e+01 4.7000000000e+00 0.0000e+00 -1.0000e+00
       -5  1    4    4    0  501 -2.4320191394e+01 +6.6516126990e+00 +2.2278136366e+00 2.5744296738e+01 4.7000000000e+00 0.0000e+00 -1.0000e+00
        5  1    4    4  502    0 +6.2686294625e+00 +1.4067470016e+01 +5.4697018892e+00 1.7005795093e+01 4.7000000000e+00 0.0000e+00 -1.0000e+00
       -5  1    4    4    0  502 +4.5541003008e+01 +3.4239415658e+01 +1.1905927249e+01 5.8396589312e+01 4.7000000000e+00 0.0000e+00 -1.0000e+00
</event>
<event>
10      1 +4.6527485e-10 2.40000000e+02 7.81860800e-03 1.03012300e-01
      -11 -1    0    0    0    0 +0.0000000000e+00 +0.0000000000e+00 +1.2000000000e+02 1.2000000000e+02 0.0000000000e+00 0.0000e+00 -1.0000e+00
       11 -1    0    0    0    0 -0.0000000000e+00 -0.0000000000e+00 -1.2000000000e+02 1.2000000000e+02 0.0000000000e+00 0.0000e+00 1.0000e+00
       23  2    1    2    0    0 -1.7293061120e+01 -4.1694811413e+01 -2.4791536223e+01 1.0480904885e+02 9.1284222030e+01 0.0000e+00 0.0000e+00
       25  2    1    2    0    0 +1.7293061120e+01 +4.1694811413e+01 +2.4791536223e+01 1.3519095115e+02 1.2499786295e+02 0.0000e+00 0.0000e+00
      -13  1    3    3    0    0 +5.0666607250e+00 -3.1524248734e+01 -5.6380321741e+01 6.4793440939e+01 0.0000000000e+00 0.0000e+00 1.0000e+00
       13  1    3    3    0    0 -2.2359721845e+01 -1.0170562679e+01 +3.1588785518e+01 4.0015607914e+01 0.0000000000e+00 0.0000e+00 -1.0000e+00
        5  1    4    4  501    0 -2.3663818753e+01 -1.5720843794e+01 +4.0842154379e+01 4.9972920886e+01 4.7000000000e+00 0.0000e+00 1.0000e+00
       -5  1    4    4    0  501 +1.8638642585e+00 +1.8108783032e+00 +1.0157094988e+01 1.1489553899e+01 4.7000000000e+00 0.0000e+00 1.0000e+00
        5  1    4    4  502    0 +2.7043821653e+01 +3.3901328042e+01 -1.7602645499e+01 4.7038404110e+01 4.7000000000e+00 0.0000e+00 -1.0000e+00
       -5  1    4    4    0  502 +1.2049193962e+01 +2.1703448862e+01 -8.6050676450e+00 2.6690072252e+01 4.7000000000e+00 0.0000e+00 -1.0000e+00
</event>
<event>
10      1 +4.6527485e-10 2.40000000e+02 7.81860800e-03 1.03012300e-01
      -11 -1    0    0    0    0 +0.0000000000e+00 +0.0000000000e+00 +1.2000000000e+02 1.2000000000e+02 0.0000000000e+00 0.0000e+00 1.0000e+00
       11 -1    0    0    0    0 -0.0000000000e+00 -0.0000000000e+00 -1.2000000000e+02 1.2000000000e+02 0.0000000000e+00 0.0000e+00 -1.0000e+00
       23  2    1    2    0    0 -1.7600566384e+01 +3.4477082847e+01 +3.1127892913e+01 1.0549020994e+02 9.3063362804e+01 0.0000e+00 0.0000e+00
       25  2    1    2    0    0 +1.7600566384e+01 -3.4477082847e+01 -3.1127892913e+01 1.3450979006e+02 1.2500195489e+02 0.0000e+00 0.0000e+00
      -13  1    3    3    0    0 +1.6673574396e+01 -9.3536177077e+00 -2.1592490194e+01 2.8839796811e+01 0.0000000000e+00 0.0000e+00 -1.0000e+00
       13  1    3    3    0    0 -3.4274140780e+01 +4.3830700554e+01 +5.2720383106e+01 7.6650413124e+01 0.0000000000e+00 0.0000e+00 1.0000e+00
        5  1    4    4  501    0 -1.9599355299e+01 -2.2038295035e+01 +3.5256999973e+01 4.6205705528e+01 4.7000000000e+00 0.0000e+00 1.0000e+00
       -5  1    4    4    0  502 +1.8166555868e+01 +2.6184526480e+00 -2.9497588130e+01 3.5058205200e+01 4.7000000000e+00 0.0000e+00 -1.0000e+00
        5  1    4    4  502    0 +1.8033037071e+01 -1.6535595845e+01 -4.0150484081e+01 4.7252171674e+01 4.7000000000e+00 0.0000e+00 -1.0000e+00
       -5  1    4    4    0  501 +1.0003287432e+00 +1.4783553849e+00 +3.2631793250e+00 5.9937076627e+00 4.7000000000e+00 0.0000e+00 -1.0000e+00
</event>
<event>
10      1 +4.6527485e-10 2.40000000e+02 7.81860800e-03 1.03012300e-01
      -11 -1    0    0    0    0 +0.0000000000e+00 +0.0000000000e+00 +1.2000000000e+02 1.2000000000e+02 0.0000000000e+00 0.0000e+00 -1.0000e+00
       11 -1    0    0    0    0 -0.0000000000e+00 -0.0000000000e+00 -1.2000000000e+02 1.2000000000e+02 0.0000000000e+00 0.0000e+00 1.0000e+00
       23  2    1    2    0    0 -1.0859821287e+01 +4.6835924694e+01 -1.9379733212e+01 1.0467767954e+02 9.0941206135e+01 0.0000e+00 0.0000e+00
       25  2    1    2    0    0 +1.0859821287e+01 -4.6835924694e+01 +1.9379733212e+01 1.3532232046e+02 1.2500006718e+02 0.0000e+00 0.0000e+00
      -11  1    3    3    0    0 +1.6244758107e+00 +6.3795136492e+01 +1.3883634393e+01 6.5308603305e+01 0.0000000000e+00 0.0000e+00 -1.0000e+00
       11  1    3    3    0    0 -1.2484297098e+01 -1.6959211798e+01 -3.3263367606e+01 3.9369076231e+01 0.0000000000e+00 0.0000e+00 1.0000e+00
        5  1    4    4  501    0 +3.4740231973e+00 -3.8384496791e+01 +6.4071365519e+01 7.4917743630e+01 4.7000000000e+00 0.0000e+00 1.0000e+00
       -5  1    4    4    0  502 -1.8611231279e+00 -1.3225195117e+01 -2.8907521458e+01 3.2188575023e+01 4.7000000000e+00 0.0000e+00 -1.0000e+00
        5  1    4    4  502    0 +5.4763729421e+00 +4.5288607222e+00 -1.9397240903e+01 2.1185943328e+01 4.7000000000e+00 0.0000e+00 -1.0000e+00
       -5  1    4    4    0  501 +3.7705482754e+00 +2.4490649232e-01 +3.6131300534e+00 7.0300584827e+00 4.7000000000e+00 0.0000e+00 -1.0000e+00
</event>
<event>
10      1 +4.6527485e-10 2.40000000e+02 7.81860800e-03 1.03012300e-01
      -11 -1    0    0    0    0 +0.0000000000e+00 +0.0000000000e+00 +1.2000000000e+02 1.2000000000e+02 0.0000000000e+00 0.0000e+00 -1.0000e+00
       11 -1    0    0    0    0 -0.0000000000e+00 -0.0000000000e+00 -1.2000000000e+02 1.2000000000e+02 0.0000000000e+00 0.0000e+00 1.0000e+00
       23  2    1    2    0    0 +2.6864336163e+00 -4.1882328717e+01 +2.9197828313e+01 1.0494765568e+02 9.1652336962e+01 0.0000e+00 0.0000e+00
       25  2    1    2    0    0 -2.6864336163e+00 +4.1882328717e+01 -2.9197828313e+01 1.3505234432e+02 1.2500110457e+02 0.0000e+00 0.0000e+00
      -11  1    3    3    0    0 -2.2317099711e+01 +1.4528128893e+00 +4.6833476301e+01 5.1899307387e+01 0.0000000000e+00 0.0000e+00 -1.0000e+00
       11  1    3    3    0    0 +2.5003533327e+01 -4.3335141606e+01 -1.7635647988e+01 5.3048348295e+01 0.0000000000e+00 0.0000e+00 1.0000e+00
        5  1    4    4  501    0 -7.2679095299e+00 +1.8407337473e+01 -3.0793575452e+01 3.6905106298e+01 4.7000000000e+00 0.0000e+00 1.0000e+00
       -5  1    4    4    0  502 +1.6319408585e+00 +1.0479353194e+01 +1.2171365056e+01 1.6814047747e+01 4.7000000000e+00 0.0000e+00 -1.0000e+00
        5  1    4    4  502    0 -7.8223909652e+00 -1.2034734025e+01 +2.9208867018e+01 3.2882708768e+01 4.7000000000e+00 0.0000e+00 -1.0000e+00
       -5  1    4    4    0  501 +1.0771926020e+01 +2.5030372076e+01 -3.9784484935e+01 4.8450481504e+01 4.7000000000e+00 0.0000e+00 1.0000e+00
</event>
<event>
10      1 +4.6527485e-10 2.40000000e+02 7.81860800e-03 1.03012300e-01
      -11 -1    0    0    0    0 +0.0000000000e+00 +0.0000000000e+00 +1.2000000000e+02 1.2000000000e+02 0.0000000000e+00 0.0000e+00 -1.0000e+00
       11 -1    0    0    0    0 -0.0000000000e+00 -0.0000000000e+00 -1.2000000000e+02 1.2000000000e+02 0.0000000000e+00 0.0000e+00 1.0000e+00
       23  2    1    2    0    0 -2.4533326479e+01 -3.2357535857e+01 +3.1012662718e+01 1.0495718956e+02 9.1680598580e+01 0.0000e+00 0.0000e+00
       25  2    1    2    0    0 +2.4533326479e+01 +3.2357535857e+01 -3.1012662718e+01 1.3504281044e+02 1.2500352462e+02 0.0000e+00 0.0000e+00
      -13  1    3    3    0    0 -2.2509910207e+01 +2.5846059076e+01 +3.1740700563e+01 4.6713883370e+01 0.0000000000e+00 0.0000e+00 -1.0000e+00
       13  1    3    3    0    0 -2.0234162723e+00 -5.8203594933e+01 -7.2803784474e-01 5.8243306187e+01 0.0000000000e+00 0.0000e+00 1.0000e+00
        5  1    4    4  501    0 -1.7107699458e+00 +2.2591275902e+01 -6.1721598647e+00 2.3947401489e+01 4.7000000000e+00 0.0000e+00 1.0000e+00
       -5  1    4    4    0  501 +5.1961650433e+00 +4.9668713274e+01 -3.2688394725e+01 5.9871548829e+01 4.7000000000e+00 0.0000e+00 -1.0000e+00
        5  1    4    4  502    0 +7.6741759730e+00 -1.0440991025e+00 -3.0596065334e-01 9.0645866823e+00 4.7000000000e+00 0.0000e+00 1.0000e+00
       -5  1    4    4    0  502 +1.3373755409e+01 -3.8858354217e+01 +8.1538525248e+00 4.2159273442e+01 4.7000000000e+00 0.0000e+00 1.0000e+00
</event>
<event>
10      1 +4.6527485e-10 2.40000000e+02 7.81860800e-03 1.03012300e-01
      -11 -1    0    0    0    0 +0.0000000000e+00 +0.0000000000e+00 +1.2000000000e+02 1.2000000000e+02 0.0000000000e+00 0.0000e+00 1.0000e+00
       11 -1    0    0    0    0 -0.0000000000e+00 -0.0000000000e+00 -1.2000000000e+02 1.2000000000e+02 0.0000000000e+00 0.0000e+00 -1.0000e+00
       23  2    1    2    0    0 +2.7508055020e+01 -2.0086654239e+01 -2.7192595407e+00 1.1041403052e+02 1.0499379503e+02 0.0000e+00 0.0000e+00
       25  2    1    2    0    0 -2.7508055020e+01 +2.0086654239e+01 +2.7192595407e+00 1.2958596948e+02 1.2499984937e+02 0.0000e+00 0.0000e+00
      -13  1    3    3    0    0 +4.0630952963e+01 -9.9512066312e+00 -4.7125180740e+01 6.3013359788e+01 0.0000000000e+00 0.0000e+00 -1.0000e+00
       13  1    3    3    0    0 -1.3122897943e+01 -1.0135447608e+01 +4.4405921199e+01 4.7400670735e+01 0.0000000000e+00 0.0000e+00 1.0000e+00
        5  1    4    4  501    0 -1.1221021408e+01 +4.6608060927e+00 -4.3667868043e+00 1.3740206034e+01 4.7000000000e+00 0.0000e+00 -1.0000e+00
       -5  1    4    4    0  502 +1.0122658219e+01 +1.1390685516e+01 -1.0987552055e+01 1.9365748788e+01 4.7000000000e+00 0.0000e+00 1.0000e+00
        5  1    4    4  502    0 +3.3289182453e+01 -2.0951141021e+00 +1.9703170346e-01 3.3685130146e+01 4.7000000000e+00 0.0000e+00 1.0000e+00
       -5  1    4    4    0  501 -5.9698874284e+01 +6.1302767326e+00 +1.7876566697e+01 6.2794884508e+01 4.7000000000e+00 0.0000e+00 -1.0000e+00
</event>
<event>
10      1 +4.6527485e-10 2.40000000e+02 7.81860800e-03 1.03012300e-01
      -11 -1    0    0    0    0 +0.0000000000e+00 +0.0000000000e+00 +1.2000000000e+02 1.2000000000e+02 0.0000000000e+00 0.0000e+00 -1.0000e+00
       11 -1    0    0    0    0 -0.0000000000e+00 -0.0000000000e+00 -1.2000000000e+02 1.2000000000e+02 0.0000000000e+00 0.0000e+00 1.0000e+00
       23  2    1    2    0    0 -4.2816526446e+01 +3.2758487934e+01 +3.5676764361e+00 1.0382422816e+02 8.8658719648e+01 0.0000e+00 0.0000e+00
       25  2    1    2    0    0 +4.2816526446e+01 -3.2758487934e+01 -3.5676764361e+00 1.3617577184e+02 1.2499895620e+02 0.0000e+00 0.0000e+00
      -13  1    3    3    0    0 -5.2324028533e+01 -1.0956449260e+01 +1.8641883567e+01 5.6615965639e+01 0.0000000000e+00 0.0000e+00 -1.0000e+00
       13  1    3    3    0    0 +9.5075020871e+00 +4.3714937194e+01 -1.5074207130e+01 4.7208262523e+01 0.0000000000e+00 0.0000e+00 1.0000e+00
        5  1    4    4  501    0 -6.2935014660e+00 -1.0450188898e+01 +7.3224409883e+00 1.4984083247e+01 4.7000000000e+00 0.0000e+00 1.0000e+00
       -5  1    4    4    0  502 +2.8810420135e+01 -1.0932506157e+00 +9.8053472661e+00 3.0813476601e+01 4.7000000000e+00 0.0000e+00 -1.0000e+00
        5  1    4    4  502    0 +4.5497015424e+01 +1.0679567202e+01 -9.0241277585e+00 4.7828406308e+01 4.7000000000e+00 0.0000e+00 -1.0000e+00
       -5  1    4    4    0  501 -2.5197407647e+01 -3.1894615622e+01 -1.1671336932e+01 4.2549805682e+01 4.7000000000e+00 0.0000e+00 1.0000e+00
</event>
<event>
10      1 +4.6527485e-10 2.40000000e+02 7.81860800e-03 1.03012300e-01
      -11 -1    0    0    0    0 +0.0000000000e+00 +0.0000000000e+00 +1.2000000000e+02 1.2000000000e+02 0.0000000000e+00 0.0000e+00 1.0000e+00
       11 -1    0    0    0    0 -0.0000000000e+00 -0.0000000000e+00 -1.2000000000e+02 1.2000000000e+02 0.0000000000e+00 0.0000e+00 -1.0000e+00
       23  2    1    2    0    0 -5.1063003162e+01 -1.2680144877e+01 -2.1219493486e+00 1.0435984496e+02 9.0101377381e+01 0.0000e+00 0.0000e+00
       25  2    1    2    0    0 +5.1063003162e+01 +1.2680144877e+01 +2.1219493486e+00 1.3564015504e+02 1.2500213047e+02 0.0000e+00 0.0000e+00
      -13  1    3    3    0    0 -7.8778436913e+00 -2.1902201105e+01 +3.8087850726e+01 4.4636881695e+01 0.0000000000e+00 0.0000e+00 1.0000e+00
       13  1    3    3    0    0 -4.3185159470e+01 +9.2220562282e+00 -4.0209800075e+01 5.9722963269e+01 0.0000000000e+00 0.0000e+00 -1.0000e+00
        5  1    4    4  501    0 +1.2299800527e+01 -3.5770998890e+01 +3.1486839010e+01 4.9440474163e+01 4.7000000000e+00 0.0000e+00 -1.0000e+00
       -5  1    4    4    0  502 +2.8982163151e+01 +4.7602440997e+01 -2.0638056226e+01 5.9615245823e+01 4.7000000000e+00 0.0000e+00 -1.0000e+00
        5  1    4    4  502    0 +1.1448127439e+01 +8.6884787768e+00 -8.3773780874e+00 1.7286403586e+01 4.7000000000e+00 0.0000e+00 1.0000e+00
       -5  1    4    4    0  501 -1.6670879547e+00 -7.8397760063e+00 -3.4945534833e-01 9.2980314646e+00 4.7000000000e+00 0.0000e+00 1.0000e+00
</event>
<event>
10      1 +4.6527485e-10 2.40000000e+02 7.81860800e-03 1.03012300e-01
      -11 -1    0    0    0    0 +0.0000000000e+00 +0.0000000000e+00 +1.2000000000e+02 1.2000000000e+02 0.0000000000e+00 0.0000e+00 1.0000e+00
       11 -1    0    0    0    0 -0.0000000000e+00 -0.0000000000e+00 -1.2000000000e+02 1.2000000000e+02 0.0000000000e+00 0.0000e+00 -1.0000e+00
       23  2    1    2    0    0 +3.5699060745e+01 -2.0753749353e+01 +2.0101053074e+01 1.0683070006e+02 9.6455197323e+01 0.0000e+00 0.0000e+00
       25  2    1    2    0    0 -3.5699060745e+01 +2.0753749353e+01 -2.0101053074e+01 1.3316929994e+02 1.2499947624e+02 0.0000e+00 0.0000e+00
      -11  1    3    3    0    0 +2.0638842289e+01 -1.3350706637e+01 +5.9298935792e+01 6.4191642484e+01 0.0000000000e+00 0.0000e+00 1.0000e+00
       11  1    3    3    0    0 +1.5060218456e+01 -7.4030427159e+00 -3.9197882719e+01 4.2639057576e+01 0.0000000000e+00 0.0000e+00 -1.0000e+00
        5  1    4    4  501    0 +3.1760335610e+00 +1.1321828706e+00 +2.8243071886e+00 6.4370597581e+00 4.7000000000e+00 0.0000e+00 1.0000e+00
       -5  1    4    4    0  501 +2.9275238787e+01 -2.1812038359e+01 +1.0224924156e+01 3.8202666103e+01 4.7000000000e+00 0.0000e+00 -1.0000e+00
        5  1    4    4  502    0 -2.1686340051e+01 +2.2764283998e+01 -1.3275495949e+01 3.4450526315e+01 4.7000000000e+00 0.0000e+00 -1.0000e+00
       -5  1    4    4    0  502 -4.6463993042e+01 +1.8669320844e+01 -1.9874788469e+01 5.4079047762e+01 4.7000000000e+00 0.0000e+00 -1.0000e+00
</event>
<event>
10      1 +4.6527485e-10 2.40000000e+02 7.81860800e-03 1.03012300e-01
      -11 -1    0    0    0    0 +0.0000000000e+00 +0.0000000000e+00 +1.2000000000e+02 1.2000000000e+02 0.0000000000e+00 0.0000e+00 -1.0000e+00
       11 -1    0    0    0    0 -0.0000000000e+00 -0.0000000000e+00 -1.2000000000e+02 1.2000000000e+02 0.0000000000e+00 0.0000e+00 1.0000e+00
       23  2    1    2    0    0 +3.4395092309e+01 +2.8596225795e+01 +2.4154838264e+01 1.0505206637e+02 9.1933203648e+01 0.0000e+00 0.0000e+00
       25  2    1    2    0    0 -3.4395092309e+01 -2.8596225795e+01 -2.4154838264e+01 1.3494793363e+02 1.2500688811e+02 0.0000e+00 0.0000e+00
      -13  1    3    3    0    0 -1.2121464425e+01 -1.4836418223e+01 +3.5564267433e+01 4.0396365227e+01 0.0000000000e+00 0.0000e+00 -1.0000e+00
       13  1    3    3    0    0 +4.6516556734e+01 +4.3432644017e+01 -1.1409429169e+01 6.4655701146e+01 0.0000000000e+00 0.0000e+00 1.0000e+00
        5  1    4    4  501    0 +2.6854601272e+01 +6.5395786829e+00 +2.0312641646e+01 3.4621223396e+01 4.7000000000e+00 0.0000e+00 1.0000e+00
       -5  1    4    4    0  502 -2.1074022885e+01 -1.2005078992e+01 -2.7326739872e+01 3.6838527036e+01 4.7000000000e+00 0.0000e+00 -1.0000e+00
        5  1    4    4  502    0 -3.9502315718e+01 -2.9164873297e+01 -2.2407195877e+01 5.4177441879e+01 4.7000000000e+00 0.0000e+00 -1.0000e+00
       -5  1    4    4    0  501 -6.7335497854e-01 +6.0341478119e+00 +5.2664558394e+00 9.3107413158e+00 4.7000000000e+00 0.0000e+00 1.0000e+00
</event>
<event>
10      1 +4.6527485e-10 2.40000000e+02 7.81860800e-03 1.03012300e-01
      -11 -1    0    0    0    0 +0.0000000000e+00 +0.0000000000e+00 +1.2000000000e+02 1.2000000000e+02 0.0000000000e+00 0.0000e+00 -1.0000e+00
       11 -1    0    0    0    0 -0.0000000000e+00 -0.0000000000e+00 -1.2000000000e+02 1.2000000000e+02 0.0000000000e+00 0.0000e+00 1.0000e+00
       23  2    1    2    0    0 +4.0862844916e+01 -1.4839369822e+01 +4.2078277763e+01 1.0112296454e+02 8.1026498792e+01 0.0000e+00 0.0000e+00
       25  2    1    2    0    0 -4.0862844916e+01 +1.4839369822e+01 -4.2078277763e+01 1.3887703546e+02 1.2500508201e+02 0.0000e+00 0.0000e+00
      -11  1    3    3    0    0 +4.9932129229e+01 +9.1272601470e+00 -1.2605456310e+00 5.0775125627e+01 0.0000000000e+00 0.0000e+00 1.0000e+00
       11  1    3    3    0    0 -9.0692843130e+00 -2.3966629970e+01 +4.3338823394e+01 5.0347838913e+01 0.0000000000e+00 0.0000e+00 -1.0000e+00
        5  1    4    4  501    0 -2.3901789386e-01 -3.7709385177e+00 -1.0604324866e-01 6.0314469266e+00 4.7000000000e+00 0.0000e+00 -1.0000e+00
       -5  1    4    4    0  502 +1.4741398362e+01 +1.3203422396e+01 -2.7850509723e+01 3.4487390166e+01 4.7000000000e+00 0.0000e+00 1.0000e+00
        5  1    4    4  502    0 -2.9187556937e+00 +1.2373463565e+01 +2.7644474449e+01 3.0788450805e+01 4.7000000000e+00 0.0000e+00 1.0000e+00
       -5  1    4    4    0  501 -5.2446469691e+01 -6.9665776204e+00 -4.1766199240e+01 6.7569747563e+01 4.7000000000e+00 0.0000e+00 -1.0000e+00
</event>
<event>
10      1 +4.6527485e-10 2.40000000e+02 7.81860800e-03 1.03012300e-01
      -11 -1    0    0    0    0 +0.0000000000e+00 +0.0000000000e+00 +1.2000000000e+02 1.2000000000e+02 0.0000000000e+00 0.0000e+00 -1.0000e+00
       11 -1    0    0    0    0 -0.0000000000e+00 -0.0000000000e+00 -1.2000000000e+02 1.2000000000e+02 0.0000000000e+00 0.0000e+00 1.0000e+00
       23  2    1    2    0    0 +9.5477538658e+00 +6.6907972168e+00 +4.8063525653e+01 1.0558104618e+02 9.3280911465e+01 0.0000e+00 0.0000e+00
       25  2    1    2    0    0 -9.5477538658e+00 -6.6907972168e+00 -4.8063525653e+01 1.3441895382e+02 1.2498970468e+02 0.0000e+00 0.0000e+00
      -11  1    3    3    0    0 -2.6839212610e+01 +2.4795976860e+01 -6.9376122044e+00 3.7192932999e+01 0.0000000000e+00 0.0000e+00 1.0000e+00
       11  1    3    3    0    0 +3.6386966476e+01 -1.8105179643e+01 +5.5001137858e+01 6.8388113184e+01 0.0000000000e+00 0.0000e+00 -1.0000e+00
        5  1    4    4  501    0 +1.1678739587e+01 +6.3073231737e+00 -6.2927021497e+00 1.5422820245e+01 4.7000000000e+00 0.0000e+00 1.0000e+00
       -5  1    4    4    0  502 +2.5129093959e+00 -1.7673170669e+01 -1.3115043538e+01 2.2643984679e+01 4.7000000000e+00 0.0000e+00 1.0000e+00
        5  1    4    4  502    0 -3.4022102373e+01 -1.5096687107e+01 -5.1748556349e+01 6.3917262893e+01 4.7000000000e+00 0.0000e+00 1.0000e+00
       -5  1    4    4    0  501 +1.0282699525e+01 +1.9771737386e+01 +2.3092776383e+01 3.2434886000e+01 4.7000000000e+00 0.0000e+00 1.0000e+00
</event>
<event>
10      1 +4.6527485e-10 2.40000000e+02 7.81860800e-03 1.03012300e-01
      -11 -1    0    0    0    0 +0.0000000000e+00 +0.0000000000e+00 +1.2000000000e+02 1.2000000000e+02 0.0000000000e+00 0.0000e+00 1.0000e+00
       11 -1    0    0    0    0 -0.0000000000e+00 -0.0000000000e+00 -1.2000000000e+02 1.2000000000e+02 0.0000000000e+00 0.0000e+00 -1.0000e+00
       23  2    1    2    0    0 +3.9913127427e+01 -3.0298228640e+01 -1.4931835331e+01 1.0450394438e+02 9.0482452908e+01 0.0000e+00 0.0000e+00
       25  2    1    2    0    0 -3.9913127427e+01 +3.0298228640e+01 +1.4931835331e+01 1.3549605562e+02 1.2500072393e+02 0.0000e+00 0.0000e+00
      -11  1    3    3    0    0 +3.9113731914e+01 -3.6535142520e+01 +2.8487277409e+01 6.0631886309e+01 0.0000000000e+00 0.0000e+00 1.0000e+00
       11  1    3    3    0    0 +7.9939551235e-01 +6.2369138793e+00 -4.3419112740e+01 4.3872058068e+01 0.0000000000e+00 0.0000e+00 -1.0000e+00
        5  1    4    4  501    0 -6.7332629978e+00 +4.7927722672e-01 -2.4994967688e+00 8.5967448116e+00 4.7000000000e+00 0.0000e+00 -1.0000e+00
       -5  1    4    4    0  501 -3.4137416983e+01 +3.5575316936e+00 -4.4922763099e+01 5.6728863152e+01 4.7000000000e+00 0.0000e+00 1.0000e+00
        5  1    4    4  502    0 +9.3908991005e-01 +7.0476801993e-01 +1.9155875448e+01 1.9758951187e+01 4.7000000000e+00 0.0000e+00 -1.0000e+00
       -5  1    4    4    0  502 +1.8462644110e-02 +2.5556651700e+01 +4.3198219751e+01 5.0411496473e+01 4.7000000000e+00 0.0000e+00 -1.0000e+00
</event>
<event>
10      1 +4.6527485e-10 2.40000000e+02 7.81860800e-03 1.03012300e-01
      -11 -1    0    0    0    0 +0.0000000000e+00 +0.0000000000e+00 +1.2000000000e+02 1.2000000000e+02 0.0000000000e+00 0.0000e+00 1.0000e+00
       11 -1    0    0    0    0 -0.0000000000e+00 -0.0000000000e+00 -1.2000000000e+02 1.2000000000e+02 0.0000000000e+00 0.0000e+00 -1.0000e+00
       23  2    1    2    0    0 -2.9118661468e+01 +4.4892048961e+00 -4.3905588182e+01 1.0427689960e+02 8.9877259143e+01 0.0000e+00 0.0000e+00
       25  2    1    2    0    0 +2.9118661468e+01 -4.4892048961e+00 +4.3905588182e+01 1.3572310040e+02 1.2500003960e+02 0.0000e+00 0.0000e+00
      -11  1    3    3    0    0 -2.6393249597e+01 +3.3525468289e+01 -5.7904683712e+01 7.1927137049e+01 0.0000000000e+00 0.0000e+00 -1.0000e+00
       11  1    3    3    0    0 -2.7254118717e+00 -2.9036263393e+01 +1.3999095531e+01 3.2349762555e+01 0.0000000000e+00 0.0000e+00 1.0000e+00
        5  1    4    4  501    0 -3.2833146768e+01 -2.0870965303e+01 +4.4187260671e+01 5.9061127021e+01 4.7000000000e+00 0.0000e+00 -1.0000e+00
       -5  1    4    4    0  502 +1.6633102901e+01 -1.8689116764e+00 +3.7357942190e+00 1.7781988118e+01 4.7000000000e+00 0.0000e+00 1.0000e+00
        5  1    4    4  502    0 +4.5569126893e+01 +1.5987257641e+01 -1.1395468290e+01 4.9840590187e+01 4.7000000000e+00 0.0000e+00 1.0000e+00
       -5  1    4    4    0  501 -2.5042155758e-01 +2.2634144425e+00 +7.3780015823e+00 9.0393950706e+00 4.7000000000e+00 0.0000e+00 -1.0000e+00
</event>
<event>
10      1 +4.6527485e-10 2.40000000e+02 7.81860800e-03 1.03012300e-01
      -11 -1    0    0    0    0 +0.0000000000e+00 +0.0000000000e+00 +1.2000000000e+02 1.2000000000e+02 0.0000000000e+00 0.0000e+00 1.0000e+00
       11 -1    0    0    0    0 -0.0000000000e+00 -0.0000000000e+00 -1.2000000000e+02 1.2000000000e+02 0.0000000000e+00 0.0000e+00 -1.0000e+00
       23  2    1    2    0    0 -3.9143010106e+01 +8.0755894863e+00 +3.0840427907e+01 1.0519058868e+02 9.2285088548e+01 0.0000e+00 0.0000e+00
       25  2    1    2    0    0 +3.9143010106e+01 -8.0755894863e+00 -3.0840427907e+01 1.3480941132e+02 1.2500022000e+02 0.0000e+00 0.0000e+00
      -11  1    3    3    0    0 +2.8029342341e+00 +3.8821614747e+01 -8.6705871884e+00 3.9876726221e+01 0.0000000000e+00 0.0000e+00 1.0000e+00
       11  1    3    3    0    0 -4.1945944341e+01 -3.0746025261e+01 +3.9511015095e+01 6.5313862463e+01 0.0000000000e+00 0.0000e+00 -1.0000e+00
        5  1    4    4  501    0 +2.3968601083e+01 -1.8131369889e+01 +2.6297624660e+01 4.0210638824e+01 4.7000000000e+00 0.0000e+00 -1.0000e+00
       -5  1    4    4    0  502 +1.1083412944e+01 +2.8140319704e+01 -3.9858752423e+01 5.0254649340e+01 4.7000000000e+00 0.0000e+00 -1.0000e+00
        5  1    4    4  502    0 -6.8530993836e+00 +3.9966823553e+00 -1.6900660254e+01 1.9252551987e+01 4.7000000000e+00 0.0000e+00 -1.0000e+00
       -5  1    4    4    0  501 +1.0944095464e+01 -2.2081221657e+01 -3.7863988969e-01 2.5091571166e+01 4.7000000000e+00 0.0000e+00 -1.0000e+00
</event>
<event>
10      1 +4.6527485e-10 2.40000000e+02 7.81860800e-03 1.03012300e-01
      -11 -1    0    0    0    0 +0.0000000000e+00 +0.0000000000e+00 +1.2000000000e+02 1.2000000000e+02 0.0000000000e+00 0.0000e+00 1.0000e+00
       11 -1    0    0    0    0 -0.0000000000e+00 -0.0000000000e+00 -1.2000000000e+02 1.2000000000e+02 0.0000000000e+00 0.0000e+00 -1.0000e+00
       23  2    1    2    0    0 -2.7881636283e+01 -2.8224528441e+01 +3.4199558990e+01 1.0446945947e+02 9.0389426807e+01 0.0000e+00 0.0000e+00
       25  2    1    2    0    0 +2.7881636283e+01 +2.8224528441e+01 -3.4199558990e+01 1.3553054053e+02 1.2499963174e+02 0.0000e+00 0.0000e+00
      -11  1    3    3    0    0 -1.3086554935e+01 +2.6994642874e+01 -1.0623984165e+01 3.1825111209e+01 0.0000000000e+00 0.0000e+00 -1.0000e+00
       11  1    3    3    0    0 -1.4795081348e+01 -5.5219171314e+01 +4.4823543155e+01 7.2644348257e+01 0.0000000000e+00 0.0000e+00 1.0000e+00
        5  1    4    4  501    0 -8.6993505586e+00 +2.0145151740e+01 +1.1306272986e+01 2.5128224124e+01 4.7000000000e+00 0.0000e+00 -1.0000e+00
       -5  1    4    4    0  502 +5.5378062435e+01 -4.3775335614e+00 -4.9477480546e+01 7.4538605302e+01 4.7000000000e+00 0.0000e+00 -1.0000e+00
        5  1    4    4  502    0 +5.7465074546e+00 -3.7388676492e-01 -3.5383904921e-01 7.4415953472e+00 4.7000000000e+00 0.0000e+00 1.0000e+00
       -5  1    4    4    0  501 -2.4543583048e+01 +1.2830797027e+01 +4.3254876196e+00 2.8422115761e+01 4.7000000000e+00 0.0000e+00 -1.0000e+00
</event>
<event>
10      1 +4.6527485e-10 2.40000000e+02 7.81860800e-03 1.03012300e-01
      -11 -1    0    0    0    0 +0.0000000000e+00 +0.0000000000e+00 +1.2000000000e+02 1.2000000000e+02 0.0000000000e+00 0.0000e+00 1.0000e+00
       11 -1    0    0    0    0 -0.0000000000e+00 -0.0000000000e+00 -1.2000000000e+02 1.2000000000e+02 0.0000000000e+00 0.0000e+00 -1.0000e+00
       23  2    1    2    0    0 -4.6576897026e+01 -2.2359473280e+01 +1.1579073779e+00 1.0473912790e+02 9.1102089890e+01 0.0000e+00 0.0000e+00
       25  2    1    2    0    0 +4.6576897026e+01 +2.2359473280e+01 -1.1579073779e+00 1.3526087210e+02 1.2499923755e+02 0.0000e+00 0.0000e+00
      -13  1    3    3    0    0 -1.7137578283e+01 -5.0814609710e+01 -2.1695873869e+01 5.7849218598e+01 0.0000000000e+00 0.0000e+00 -1.0000e+00
       13  1    3    3    0    0 -2.9439318743e+01 +2.8455136430e+01 +2.2853781247e+01 4.6889909305e+01 0.0000000000e+00 0.0000e+00 1.0000e+00
        5  1    4    4  501    0 +3.7105449890e+01 +5.1101349608e+01 +4.7404061392e+00 6.3503730549e+01 4.7000000000e+00 0.0000e+00 1.0000e+00
       -5  1    4    4    0  501 +4.0957532386e+00 +1.0775639087e+01 -6.0549697522e+00 1.3843491287e+01 4.7000000000e+00 0.0000e+00 -1.0000e+00
        5  1    4    4  502    0 +1.8981888371e+00 +6.0016593784e+00 +8.1611257468e+00 1.1327709813e+01 4.7000000000e+00 0.0000e+00 -1.0000e+00
       -5  1    4    4    0  502 +3.4775050603e+00 -4.5519174793e+01 -8.0044695116e+00 4.6585940448e+01 4.7000000000e+00 0.0000e+00 -1.0000e+00
</event>
<event>
10      1 +4.6527485e-10 2.40000000e+02 7.81860800e-03 1.03012300e-01
      -11 -1    0    0    0    0 +0.0000000000e+00 +0.0000000000e+00 +1.2000000000e+02 1.2000000000e+02 0.0000000000e+00 0.0000e+00 -1.0000e+00
       11 -1    0    0    0    0 -0.0000000000e+00 -0.0000000000e+00 -1.2000000000e+02 1.2000000000e+02 0.0000000000e+00 0.0000e+00 1.0000e+00
       23  2    1    2    0    0 +2.4521119617e+01 -1.7235835004e+01 -4.2470830523e+01 1.0462259582e+02 9.0795136408e+01 0.0000e+00 0.0000e+00
       25  2    1    2    0    0 -2.4521119617e+01 +1.7235835004e+01 +4.2470830523e+01 1.3537740418e+02 1.2499964321e+02 0.0000e+00 0.0000e+00
      -13  1    3    3    0    0 +5.3899632768e+01 +8.5099365665e+00 -1.4146897584e+01 5.6371306036e+01 0.0000000000e+00 0.0000e+00 1.0000e+00
       13  1    3    3    0    0 -2.9378513151e+01 -2.5745771570e+01 -2.8323932939e+01 4.8251289785e+01 0.0000000000e+00 0.0000e+00 -1.0000e+00
        5  1    4    4  501    0 +2.0008904801e+01 -2.3907146399e+01 +3.7638198674e+01 4.9098186521e+01 4.7000000000e+00 0.0000e+00 1.0000e+00
       -5  1    4    4    0  501 -4.9795882020e+01 +4.7358127722e+01 -7.9384666431e-01 6.8884993431e+01 4.7000000000e+00 0.0000e+00 1.0000e+00
        5  1    4    4  502    0 +1.6870106275e+00 +1.6263692393e+00 +5.4590093079e+00 7.5750818070e+00 4.7000000000e+00 0.0000e+00 1.0000e+00
       -5  1    4    4    0  502 +3.5788469742e+00 -7.8415155591e+00 +1.6746920559e-01 9.8191424199e+00 4.7000000000e+00 0.0000e+00 1.0000e+00
</event>
<event>
10      1 +4.6527485e-10 2.40000000e+02 7.81860800e-03 1.03012300e-01
      -11 -1    0    0    0    0 +0.0000000000e+00 +0.0000000000e+00 +1.2000000000e+02 1.2000000000e+02 0.0000000000e+00 0.0000e+00 1.0000e+00
       11 -1    0    0    0    0 -0.0000000000e+00 -0.0000000000e+00 -1.2000000000e+02 1.2000000000e+02 0.0000000000e+00 0.0000e+00 -1.0000e+00
       23  2    1    2    0    0 -3.6735721863e+01 -2.3862928173e+01 +1.6305164001e+01 1.0654960742e+02 9.5749714706e+01 0.0000e+00 0.0000e+00
       25  2    1    2    0    0 +3.6735721863e+01 +2.3862928173e+01 -1.6305164001e+01 1.3345039258e+02 1.2499678518e+02 0.0000e+00 0.0000e+00
      -13  1    3    3    0    0 -7.1996012006e+00 -5.8647551066e+01 +3.6789322823e+00 5.9202230078e+01 0.0000000000e+00 0.0000e+00 -1.0000e+00
       13  1    3    3    0    0 -2.9536120663e+01 +3.4784622893e+01 +1.2626231718e+01 4.7347377341e+01 0.0000000000e+00 0.0000e+00 1.0000e+00
        5  1    4    4  501    0 -8.2877254154e+00 +3.1562968986e+01 +1.1931651617e+01 3.5062254834e+01 4.7000000000e+00 0.0000e+00 1.0000e+00
       -5  1    4    4    0  502 +3.3396594075e+01 -5.3612579005e+00 -3.8199600538e+01 5.1238413943e+01 4.7000000000e+00 0.0000e+00 1.0000e+00
        5  1    4    4  502    0 +1.2541694266e+01 -1.4287809928e+01 -1.1065798351e+01 2.2493943646e+01 4.7000000000e+00 0.0000e+00 1.0000e+00
       -5  1    4    4    0  501 -9.1484106215e-01 +1.1949027015e+01 +2.1028583272e+01 2.4655780158e+01 4.7000000000e+00 0.0000e+00 1.0000e+00
</event>
<event>
10      1 +4.6527485e-10 2.40000000e+02 7.81860800e-03 1.03012300e-01
      -11 -1    0    0    0    0 +0.0000000000e+00 +0.0000000000e+00 +1.2000000000e+02 1.2000000000e+02 0.0000000000e+00 0.0000e+00 -1.0000e+00
       11 -1    0    0    0    0 -0.0000000000e+00 -0.0000000000e+00 -1.2000000000e+02 1.2000000000e+02 0.0000000000e+00 0.0000e+00 1.0000e+00
       23  2    1    2    0    0 +4.2076235869e+01 +2.5236623226e+01 +1.4516723473e+01 1.0493924577e+02 9.1619939239e+01 0.0000e+00 0.0000e+00
       25  2    1    2    0    0 -4.2076235869e+01 -2.5236623226e+01 -1.4516723473e+01 1.3506075423e+02 1.2499350101e+02 0.0000e+00 0.0000e+00
      -13  1    3    3    0    0 +6.1391921192e+01 +4.5018565205e+01 +1.3157071409e+01 7.7257671003e+01 0.0000000000e+00 0.0000e+00 -1.0000e+00
       13  1    3    3    0    0 -1.9315685323e+01 -1.9781941979e+01 +1.3596520637e+00 2.7681574769e+01 0.0000000000e+00 0.0000e+00 1.0000e+00
        5  1    4    4  501    0 +2.5603866316e+01 -2.9694154160e+00 -1.4022214403e+00 2.6237980547e+01 4.7000000000e+00 0.0000e+00 -1.0000e+00
       -5  1    4    4    0  501 +6.7344785193e+00 +7.9739569975e+00 +3.0679090714e+00 1.1850707034e+01 4.7000000000e+00 0.0000e+00 -1.0000e+00
        5  1    4    4  502    0 -4.7319652620e+01 -4.3224590490e+01 -4.5853384046e+00 6.4425383781e+01 4.7000000000e+00 0.0000e+00 -1.0000e+00
       -5  1    4    4    0  502 -2.7094928084e+01 +1.2983425683e+01 -1.1597072699e+01 3.2546682866e+01 4.7000000000e+00 0.0000e+00 -1.0000e+00
</event>
<event>
10      1 +4.6527485e-10 2.40000000e+02 7.81860800e-03 1.03012300e-01
      -11 -1    0    0    0    0 +0.0000000000e+00 +0.0000000000e+00 +1.2000000000e+02 1.2000000000e+02 0.0000000000e+00 0.0000e+00 1.0000e+00
       11 -1    0    0    0    0 -0.0000000000e+00 -0.0000000000e+00 -1.2000000000e+02 1.2000000000e+02 0.0000000000e+00 0.0000e+00 -1.0000e+00
       23  2    1    2    0    0 -3.1582218459e+01 -2.6471736184e+01 -3.1678990089e+01 1.0462417754e+02 9.0799068136e+01 0.0000e+00 0.0000e+00
       25  2    1    2    0    0 +3.1582218459e+01 +2.6471736184e+01 +3.1678990089e+01 1.3537582246e+02 1.2499946221e+02 0.0000e+00 0.0000e+00
      -13  1    3    3    0    0 +3.2045726793e+01 -1.1420624814e+01 -6.9663087821e+00 3.4725908697e+01 0.0000000000e+00 0.0000e+00 1.0000e+00
       13  1    3    3    0    0 -6.3627945252e+01 -1.5051111370e+01 -2.4712681307e+01 6.9898268847e+01 0.0000000000e+00 0.0000e+00 -1.0000e+00
        5  1    4    4  501    0 -2.4266012251e+01 -2.6268878525e+01 +1.3367370109e+01 3.8466477784e+01 4.7000000000e+00 0.0000e+00 1.0000e+00
       -5  1    4    4    0  502 -2.8563494015e+00 +1.3750470827e+01 -1.9824602812e+00 1.4941697649e+01 4.7000000000e+00 0.0000e+00 -1.0000e+00
        5  1    4    4  502    0 +1.1786571378e+00 +1.2956382651e+00 -6.3234351831e+00 8.0711674296e+00 4.7000000000e+00 0.0000e+00 -1.0000e+00
       -5  1    4    4    0  501 +5.7525922974e+01 +3.7694505616e+01 +2.6617515445e+01 7.3896479592e+01 4.7000000000e+00 0.0000e+00 1.0000e+00
</event>
<event>
10      1 +4.6527485e-10 2.40000000e+02 7.81860800e-03 1.03012300e-01
      -11 -1    0    0    0    0 +0.0000000000e+00 +0.0000000000e+00 +1.2000000000e+02 1.2000000000e+02 0.0000000000e+00 0.0000e+00 1.0000e+00
       11 -1    0    0    0    0 -0.0000000000e+00 -0.0000000000e+00 -1.2000000000e+02 1.2000000000e+02 0.0000000000e+00 0.0000e+00 -1.0000e+00
       23  2    1    2    0    0 +1.3960192000e+01 +2.6595506214e+01 -4.5723929423e+01 1.0355220334e+02 8.7921403441e+01 0.0000e+00 0.0000e+00
       25  2    1    2    0    0 -1.3960192000e+01 -2.6595506214e+01 +4.5723929423e+01 1.3644779666e+02 1.2500046232e+02 0.0000e+00 0.0000e+00
      -11  1    3    3    0    0 +2.4400873018e+01 +6.7213470247e+00 -6.7614579816e+01 7.2196333104e+01 0.0000000000e+00 0.0000e+00 -1.0000e+00
       11  1    3    3    0    0 -1.0440681018e+01 +1.9874159189e+01 +2.1890650393e+01 3.1355870236e+01 0.0000000000e+00 0.0000e+00 1.0000e+00
        5  1    4    4  501    0 +1.4716582412e+01 -1.3014101385e+01 +2.3793242987e+01 3.1211424905e+01 4.7000000000e+00 0.0000e+00 -1.0000e+00
       -5  1    4    4    0  502 -1.4043727549e+01 -5.8723600253e+00 +1.4158065664e+01 2.1313181815e+01 4.7000000000e+00 0.0000e+00 1.0000e+00
        5  1    4    4  502    0 -4.7916431468e+01 +2.0272081537e+00 +8.4347687058e+00 4.8921664942e+01 4.7000000000e+00 0.0000e+00 1.0000e+00
       -5  1    4    4    0  501 +3.3283384604e+01 -9.7362529574e+00 -6.6214793365e-01 3.5001524999e+01 4.7000000000e+00 0.0000e+00 -1.0000e+00
</event>
<event>
10      1 +4.6527485e-10 2.40000000e+02 7.81860800e-03 1.03012300e-01
      -11 -1    0    0    0    0 +0.0000000000e+00 +0.0000000000e+00 +1.2000000000e+02 1.2000000000e+02 0.0000000000e+00 0.0000e+00 1.0000e+00
       11 -1    0    0    0    0 -0.0000000000e+00 -0.0000000000e+00 -1.2000000000e+02 1.2000000000e+02 0.0000000000e+00 0.0000e+00 -1.0000e+00
       23  2    1    2    0    0 -5.1359916285e+01 +2.1783241442e-01 +3.1732697935e+00 1.0482236597e+02 9.1322342910e+01 0.0000e+00 0.0000e+00
       25  2    1    2    0    0 +5.1359916285e+01 -2.1783241442e-01 -3.1732697935e+00 1.3517763403e+02 1.2500013860e+02 0.0000e+00 0.0000e+00
      -13  1    3    3    0    0 +1.7937353419e+01 -2.3259314251e+01 -8.8457497772e+00 3.0675586975e+01 0.0000000000e+00 0.0000e+00 -1.0000e+00
       13  1    3    3    0    0 -6.9297269704e+01 +2.3477146666e+01 +1.2019019571e+01 7.4146778996e+01 0.0000000000e+00 0.0000e+00 1.0000e+00
        5  1    4    4  501    0 +1.3397578479e+01 +2.2205309916e+00 +3.6710009885e+00 1.4832131177e+01 4.7000000000e+00 0.0000e+00 1.0000e+00
       -5  1    4    4    0  501 +5.9346294116e+01 +3.5356490102e+01 +2.1147161500e+00 6.9272115905e+01 4.7000000000e+00 0.0000e+00 -1.0000e+00
        5  1    4    4  502    0 -1.1187089734e+00 -5.3959871630e+00 +6.3563796760e+00 9.6364801570e+00 4.7000000000e+00 0.0000e+00 -1.0000e+00
       -5  1    4    4    0  502 -2.0265247336e+01 -3.2398866345e+01 -1.5315366608e+01 4.1436906791e+01 4.7000000000e+00 0.0000e+00 -1.0000e+00
</event>
<event>
10      1 +4.6527485e-10 2.40000000e+02 7.81860800e-03 1.03012300e-01
      -11 -1    0    0    0    0 +0.0000000000e+00 +0.0000000000e+00 +1.2000000000e+02 1.2000000000e+02 0.0000000000e+00 0.0000e+00 1.0000e+00
       11 -1    0    0    0    0 -0.0000000000e+00 -0.0000000000e+00 -1.2000000000e+02 1.2000000000e+02 0.0000000000e+00 0.0000e+00 -1.0000e+00
       23  2    1    2    0    0 -1.2553910729e+01 -5.1733267143e+01 -5.5860802753e+00 1.0401911848e+02 8.9189915976e+01 0.0000e+00 0.0000e+00
       25  2    1    2    0    0 +1.2553910729e+01 +5.1733267143e+01 +5.5860802753e+00 1.3598088152e+02 1.2500265694e+02 0.0000e+00 0.0000e+00
      -11  1    3    3    0    0 -3.3662517353e+00 -7.2952544808e+01 +1.3216318633e+01 7.4216416802e+01 0.0000000000e+00 0.0000e+00 1.0000e+00
       11  1    3    3    0    0 -9.1876589938e+00 +2.1219277665e+01 -1.8802398909e+01 2.9802701675e+01 0.0000000000e+00 0.0000e+00 -1.0000e+00
        5  1    4    4  501    0 +2.2017148015e+00 -8.4140196500e-01 +3.1222953434e+00 6.1150824643e+00 4.7000000000e+00 0.0000e+00 1.0000e+00
       -5  1    4    4    0  502 +1.1937398181e+01 +7.6598563009e+01 -6.0796191003e+00 7.7903100701e+01 4.7000000000e+00 0.0000e+00 -1.0000e+00
        5  1    4    4  502    0 -5.0013490498e+00 +1.2267432682e+01 -6.6731742885e-01 1.4072622694e+01 4.7000000000e+00 0.0000e+00 -1.0000e+00
       -5  1    4    4    0  501 +3.4161467968e+00 -3.6291326583e+01 +9.2107214611e+00 3.7890075665e+01 4.7000000000e+00 0.0000e+00 -1.0000e+00
</event>
<event>
10      1 +4.6527485e-10 2.40000000e+02 7.81860800e-03 1.03012300e-01
      -11 -1    0    0    0    0 +0.0000000000e+00 +0.0000000000e+00 +1.2000000000e+02 1.2000000000e+02 0.0000000000e+00 0.0000e+00 1.0000e+00
       11 -1    0    0    0    0 -0.0000000000e+00 -0.0000000000e+00 -1.2000000000e+02 1.2000000000e+02 0.0000000000e+00 0.0000e+00 -1.0000e+00
       23  2    1    2    0    0 -1.0606328910e+01 +1.5531947698e+01 +4.5600429425e+01 1.0562150785e+02 9.3395760850e+01 0.0000e+00 0.0000e+00
       25  2    1    2    0    0 +1.0606328910e+01 -1.5531947698e+01 -4.5600429425e+01 1.3437849215e+02 1.2499777749e+02 0.0000e+00 0.0000e+00
      -13  1    3    3    0    0 +4.8161033635e+00 -2.4815383500e+01 +5.5782826777e+01 6.1243137355e+01 0.0000000000e+00 0.0000e+00 1.0000e+00
       13  1    3    3    0    0 -1.5422432273e+01 +4.0347331198e+01 -1.0182397351e+01 4.4378370496e+01 0.0000000000e+00 0.0000e+00 -1.0000e+00
        5  1    4    4  501    0 -3.7982289744e+01 +2.6492826050e+01 -1.0748513715e+00 4.6559311333e+01 4.7000000000e+00 0.0000e+00 1.0000e+00
       -5  1    4    4    0  502 +6.1945852356e+00 +1.3114468133e+00 -7.0826958203e+00 1.0599403713e+01 4.7000000000e+00 0.0000e+00 1.0000e+00
        5  1    4    4  502    0 +6.5690062124e+00 +1.9617752115e+00 -1.0295832796e+01 1.3232330768e+01 4.7000000000e+00 0.0000e+00 1.0000e+00
       -5  1    4    4    0  501 +3.5825027206e+01 -4.5297995773e+01 -2.7147049437e+01 6.3987446335e+01 4.7000000000e+00 0.0000e+00 1.0000e+00
</event>
<event>
10      1 +4.6527485e-10 2.40000000e+02 7.81860800e-03 1.03012300e-01
      -11 -1    0    0    0    0 +0.0000000000e+00 +0.0000000000e+00 +1.2000000000e+02 1.2000000000e+02 0.0000000000e+00 0.0000e+00 1.0000e+00
       11 -1    0    0    0    0 -0.0000000000e+00 -0.0000000000e+00 -1.2000000000e+02 1.2000000000e+02 0.0000000000e+00 0.0000e+00 -1.0000e+00
       23  2    1    2    0    0 -5.0400491251e+00 +4.8886058948e+01 +1.6653929841e+01 1.0465845370e+02 9.0888886544e+01 0.0000e+00 0.0000e+00
       25  2    1    2    0    0 +5.0400491251e+00 -4.8886058948e+01 -1.6653929841e+01 1.3534154630e+02 1.2499892768e+02 0.0000e+00 0.0000e+00
      -11  1    3    3    0    0 +2.8880571919e+01 +2.3550793801e+01 +4.1333758012e+01 5.5652554968e+01 0.0000000000e+00 0.0000e+00 1.0000e+00
       11  1    3    3    0    0 -3.3920621044e+01 +2.5335265146e+01 -2.4679828171e+01 4.9005898733e+01 0.0000000000e+00 0.0000e+00 -1.0000e+00
        5  1    4    4  501    0 -2.2288812400e+01 -2.3489019819e+01 -3.2312966782e+01 4.5986335280e+01 4.7000000000e+00 0.0000e+00 1.0000e+00
       -5  1    4    4    0  501 -3.9363590599e+00 -1.2845769804e+01 -2.7940361291e+01 3.1357016975e+01 4.7000000000e+00 0.0000e+00 1.0000e+00
        5  1    4    4  502    0 +1.4575730562e+01 +2.1921291610e+00 +1.8502280392e+01 2.4118078932e+01 4.7000000000e+00 0.0000e+00 1.0000e+00
       -5  1    4    4    0  502 +1.6689490023e+01 -1.4743398486e+01 +2.5097117840e+01 3.3880115112e+01 4.7000000000e+00 0.0000e+00 1.0000e+00
</event>
<event>
10      1 +4.6527485e-10 2.40000000e+02 7.81860800e-03 1.03012300e-01
      -11 -1    0    0    0    0 +0.0000000000e+00 +0.0000000000e+00 +1.2000000000e+02 1.2000000000e+02 0.0000000000e+00 0.0000e+00 -1.0000e+00
       11 -1    0    0    0    0 -0.0000000000e+00 -0.0000000000e+00 -1.2000000000e+02 1.2000000000e+02 0.0000000000e+00 0.0000e+00 1.0000e+00
       23  2    1    2    0    0 +4.1160123254e+01 +3.3284214559e+01 -4.7019924404e+00 1.0417307678e+02 8.9598697019e+01 0.0000e+00 0.0000e+00
       25  2    1    2    0    0 -4.1160123254e+01 -3.3284214559e+01 +4.7019924404e+00 1.3582692322e+02 1.2499939861e+02 0.0000e+00 0.0000e+00
      -11  1    3    3    0    0 -6.5627992644e+00 -2.6090047148e+01 -7.5556218254e+00 2.7943663245e+01 0.0000000000e+00 0.0000e+00 1.0000e+00
       11  1    3    3    0    0 +4.7722922518e+01 +5.9374261707e+01 +2.8536293850e+00 7.6229413533e+01 0.0000000000e+00 0.0000e+00 -1.0000e+00
        5  1    4    4  501    0 +1.1923711325e+00 -3.2631151463e+01 -4.0574616921e+01 5.2293434894e+01 4.7000000000e+00 0.0000e+00 -1.0000e+00
       -5  1    4    4    0  501 +4.9869124136e-01 +1.1234331268e+00 -9.4239295557e+00 1.0602416857e+01 4.7000000000e+00 0.0000e+00 -1.0000e+00
        5  1    4    4  502    0 -4.1607484775e+01 -2.5654037978e+00 +4.2238634142e+01 5.9531137232e+01 4.7000000000e+00 0.0000e+00 -1.0000e+00
       -5  1    4    4    0  502 -1.2437008528e+00 +7.8890757509e-01 +1.2461904775e+01 1.3399934239e+01 4.7000000000e+00 0.0000e+00 -1.0000e+00
</event>
<event>
10      1 +4.6527485e-10 2.40000000e+02 7.81860800e-03 1.03012300e-01
      -11 -1    0    0    0    0 +0.0000000000e+00 +0.0000000000e+00 +1.2000000000e+02 1.2000000000e+02 0.0000000000e+00 0.0000e+00 -1.0000e+00
       11 -1    0    0    0    0 -0.0000000000e+00 -0.0000000000e+00 -1.2000000000e+02 1.2000000000e+02 0.0000000000e+00 0.0000e+00 1.0000e+00
       23  2    1    2    0    0 +3.7553688444e+01 +1.3078118114e+01 +3.2753936252e+01 1.0479917994e+02 9.1261881899e+01 0.0000e+00 0.0000e+00
       25  2    1    2    0    0 -3.7553688444e+01 -1.3078118114e+01 -3.2753936252e+01 1.3520082006e+02 1.2500049886e+02 0.0000e+00 0.0000e+00
      -13  1    3    3    0    0 +3.1407730406e+01 +1.7485593343e+01 +6.3591135255e+01 7.3048093657e+01 0.0000000000e+00 0.0000e+00 -1.0000e+00
       13  1    3    3    0    0 +6.1459580378e+00 -4.4074752282e+00 -3.0837199003e+01 3.1751086288e+01 0.0000000000e+00 0.0000e+00 1.0000e+00
        5  1    4    4  501    0 -8.6926172044e+00 +4.8674242473e+00 -2.6969127552e-01 1.1018899494e+01 4.7000000000e+00 0.0000e+00 1.0000e+00
       -5  1    4    4    0  501 +4.2890106535e+01 +2.4576745127e+00 -1.3656770072e+01 4.5323269646e+01 4.7000000000e+00 0.0000e+00 1.0000e+00
        5  1    4    4  502    0 -1.7110556703e+01 -1.3810734979e-01 -1.1685934930e+00 1.7783302142e+01 4.7000000000e+00 0.0000e+00 -1.0000e+00
       -5  1    4    4    0  502 -5.4640621071e+01 -2.0265109525e+01 -1.7658881411e+01 6.1075348774e+01 4.7000000000e+00 0.0000e+00 -1.0000e+00
</event>
<event>
10      1 +4.6527485e-10 2.40000000e+02 7.81860800e-03 1.03012300e-01
      -11 -1    0    0    0    0 +0.0000000000e+00 +0.0000000000e+00 +1.2000000000e+02 1.2000000000e+02 0.0000000000e+00 0.0000e+00 1.0000e+00
       11 -1    0    0    0    0 -0.0000000000e+00 -0.0000000000e+00 -1.2000000000e+02 1.2000000000e+02 0.0000000000e+00 0.0000e+00 -1.0000e+00
       23  2    1    2    0    0 -3.9105198912e+01 +3.8906666000e+01 +7.8368324213e-01 1.0336524261e+02 8.7411749666e+01 0.0000e+00 0.0000e+00
       25  2    1    2    0    0 +3.9105198912e+01 -3.8906666000e+01 -7.8368324213e-01 1.3663475739e+02 1.2500199009e+02 0.0000e+00 0.0000e+00
      -13  1    3    3    0    0 +1.6843558120e+01 +6.4391583864e+00 -2.7403105900e+01 3.2803939151e+01 0.0000000000e+00 0.0000e+00 -1.0000e+00
       13  1    3    3    0    0 -5.5948757032e+01 +3.2467507614e+01 +2.8186789142e+01 7.0561303461e+01 0.0000000000e+00 0.0000e+00 1.0000e+00
        5  1    4    4  501    0 +2.7372568780e+01 +6.8776075359e+00 +3.6088206757e+01 4.6054399072e+01 4.7000000000e+00 0.0000e+00 1.0000e+00
       -5  1    4    4    0  501 +1.7539333787e+01 -2.6895489230e+00 +1.2059851867e+01 2.1963422551e+01 4.7000000000e+00 0.0000e+00 1.0000e+00
        5  1    4    4  502    0 +1.2056969752e+00 -1.3155811156e+01 -5.2097687504e+00 1.4958635058e+01 4.7000000000e+00 0.0000e+00 -1.0000e+00
       -5  1    4    4    0  502 -7.0124006298e+00 -2.9938913457e+01 -4.3721973115e+01 5.3658300706e+01 4.7000000000e+00 0.0000e+00 -1.0000e+00
</event>
<event>
10      1 +4.6527485e-10 2.40000000e+02 7.81860800e-03 1.03012300e-01
      -11 -1    0    0    0    0 +0.0000000000e+00 +0.0000000000e+00 +1.2000000000e+02 1.2000000000e+02 0.0000000000e+00 0.0000e+00 1.0000e+00
       11 -1    0    0    0    0 -0.0000000000e+00 -0.0000000000e+00 -1.2000000000e+02 1.2000000000e+02 0.0000000000e+00 0.0000e+00 -1.0000e+00
       23  2    1    2    0    0 -3.2674807787e+01 -1.0433225905e+01 +3.7204632030e+01 1.0514447739e+02 9.2166594899e+01 0.0000e+00 0.0000e+00
       25  2    1    2    0    0 +3.2674807787e+01 +1.0433225905e+01 -3.7204632030e+01 1.3485552261e+02 1.2500132826e+02 0.0000e+00 0.0000e+00
      -13  1    3    3    0    0 -4.2658188344e+01 +3.0223446282e+01 +5.3777522843e+00 5.2555665323e+01 0.0000000000e+00 0.0000e+00 1.0000e+00
       13  1    3    3    0    0 +9.9833805565e+00 -4.0656672187e+01 +3.1826879745e+01 5.2588812071e+01 0.0000000000e+00 0.0000e+00 -1.0000e+00
        5  1    4    4  501    0 +2.5651930339e+00 +5.8394198891e+01 -2.3973646985e+01 6.3350520354e+01 4.7000000000e+00 0.0000e+00 1.0000e+00
       -5  1    4    4    0  502 +7.6056440353e+00 -2.2042657464e+00 -1.4614517614e+00 9.3236500322e+00 4.7000000000e+00 0.0000e+00 1.0000e+00
        5  1    4    4  502    0 +3.0306413693e+01 -3.1068834477e+01 -1.0167178138e+01 4.4824242302e+01 4.7000000000e+00 0.0000e+00 -1.0000e+00
       -5  1    4    4    0  501 -7.8024429748e+00 -1.4687872762e+01 -1.6023551458e+00 1.7357109917e+01 4.7000000000e+00 0.0000e+00 -1.0000e+00
</event>
<event>
10      1 +4.6527485e-10 2.40000000e+02 7.81860800e-03 1.03012300e-01
      -11 -1    0    0    0    0 +0.0000000000e+00 +0.0000000000e+00 +1.2000000000e+02 1.2000000000e+02 0.0000000000e+00 0.0000e+00 1.0000e+00
       11 -1    0    0    0    0 -0.0000000000e+00 -0.0000000000e+00 -1.2000000000e+02 1.2000000000e+02 0.0000000000e+00 0.0000e+00 -1.0000e+00
       23  2    1    2    0    0 +8.1102364252e+00 -2.3625689597e+01 +4.4962880146e+01 1.0483584859e+02 9.1350672763e+01 0.0000e+00 0.0000e+00
       25  2    1    2    0    0 -8.1102364252e+00 +2.3625689597e+01 -4.4962880146e+01 1.3516415141e+02 1.2499495227e+02 0.0000e+00 0.0000e+00
      -13  1    3    3    0    0 +1.3367950215e+01 +3.3437362586e+01 +8.7852080788e+00 3.7066685725e+01 0.0000000000e+00 0.0000e+00 -1.0000e+00
       13  1    3    3    0    0 -5.2577137896e+00 -5.7063052184e+01 +3.6177672067e+01 6.7769162862e+01 0.0000000000e+00 0.0000e+00 1.0000e+00
        5  1    4    4  501    0 +2.7818192980e+01 +4.5039213150e+01 +1.3679684299e+01 5.4878104417e+01 4.7000000000e+00 0.0000e+00 -1.0000e+00
       -5  1    4    4    0  501 -1.0331565854e+01 +1.5992460346e+00 -2.1326253499e+00 1.1659199448e+01 4.7000000000e+00 0.0000e+00 -1.0000e+00
        5  1    4    4  502    0 -2.0798329486e+01 -9.1167993424e+00 -3.8106529304e+01 4.4608117145e+01 4.7000000000e+00 0.0000e+00 1.0000e+00
       -5  1    4    4    0  502 -4.7985340653e+00 -1.3895970245e+01 -1.8403409790e+01 2.4018730402e+01 4.7000000000e+00 0.0000e+00 1.0000e+00
</event>
<event>
10      1 +4.6527485e-10 2.40000000e+02 7.81860800e-03 1.03012300e-01
      -11 -1    0    0    0    0 +0.0000000000e+00 +0.0000000000e+00 +1.2000000000e+02 1.2000000000e+02 0.0000000000e+00 0.0000e+00 -1.0000e+00
       11 -1    0    0    0    0 -0.0000000000e+00 -0.0000000000e+00 -1.2000000000e+02 1.2000000000e+02 0.0000000000e+00 0.0000e+00 1.0000e+00
       23  2    1    2    0    0 +1.2710372369e+01 +3.6746420830e+01 -3.2731655128e+01 1.0505984262e+02 9.1947573515e+01 0.0000e+00 0.0000e+00
       25  2    1    2    0    0 -1.2710372369e+01 -3.6746420830e+01 +3.2731655128e+01 1.3494015738e+02 1.2500252724e+02 0.0000e+00 0.0000e+00
      -13  1    3    3    0    0 -3.0552313868e+01 +4.5786332472e+01 -1.2464985690e+01 5.6437646941e+01 0.0000000000e+00 0.0000e+00 1.0000e+00
       13  1    3    3    0    0 +4.3262686238e+01 -9.0399116421e+00 -2.0266669438e+01 4.8622195684e+01 0.0000000000e+00 0.0000e+00 -1.0000e+00
        5  1    4    4  501    0 -6.3503789648e+00 -4.4048296722e+00 -2.9169049170e+01 3.0539372406e+01 4.7000000000e+00 0.0000e+00 -1.0000e+00
       -5  1    4    4    0  502 -1.6589642466e+01 -8.1753768684e+00 +1.8410752928e+01 2.6516011153e+01 4.7000000000e+00 0.0000e+00 1.0000e+00
        5  1    4    4  502    0 -1.8212839050e+01 -2.9559171424e+01 +2.7047401584e+01 4.4261767407e+01 4.7000000000e+00 0.0000e+00 1.0000e+00
       -5  1    4    4    0  501 +2.8442488111e+01 +5.3929571353e+00 +1.6442549786e+01 3.3623006410e+01 4.7000000000e+00 0.0000e+00 -1.0000e+00
</event>
<event>
10      1 +4.6527485e-10 2.40000000e+02 7.81860800e-03 1.03012300e-01
      -11 -1    0    0    0    0 +0.0000000000e+00 +0.0000000000e+00 +1.2000000000e+02 1.2000000000e+02 0.0000000000e+00 0.0000e+00 1.0000e+00
       11 -1    0    0    0    0 -0.0000000000e+00 -0.0000000000e+00 -1.2000000000e+02 1.2000000000e+02 0.0000000000e+00 0.0000e+00 -1.0000e+00
       23  2    1    2    0    0 +4.4635767126e+01 +1.5531280688e+01 +1.9107556571e+01 1.0503232613e+02 9.1832012000e+01 0.0000e+00 0.0000e+00
       25  2    1    2    0    0 -4.4635767126e+01 -1.5531280688e+01 -1.9107556571e+01 1.3496767387e+02 1.2497040403e+02 0.0000e+00 0.0000e+00
      -11  1    3    3    0    0 +5.2712334868e+01 -8.9915751193e+00 -2.0903465583e+01 5.7414227712e+01 0.0000000000e+00 0.0000e+00 -1.0000e+00
       11  1    3    3    0    0 -8.0765677418e+00 +2.4522855808e+01 +4.0011022154e+01 4.7618098421e+01 0.0000000000e+00 0.0000e+00 1.0000e+00
        5  1    4    4  501    0 -1.9328837918e+01 +7.7149824287e+00 -3.2238342890e+01 3.8659095714e+01 4.7000000000e+00 0.0000e+00 -1.0000e+00
       -5  1    4    4    0  501 -3.9437714628e+01 +1.9487494184e+01 -5.6370895634e+00 4.4597786306e+01 4.7000000000e+00 0.0000e+00 -1.0000e+00
        5  1    4    4  502    0 +1.0804360947e+01 -2.6774853793e+01 +4.6101914120e+00 2.9613694062e+01 4.7000000000e+00 0.0000e+00 -1.0000e+00
       -5  1    4    4    0  502 +3.3264244726e+00 -1.5958903508e+01 +1.4157684470e+01 2.2097097785e+01 4.7000000000e+00 0.0000e+00 -1.0000e+00
</event>
<event>
10      1 +4.6527485e-10 2.40000000e+02 7.81860800e-03 1.03012300e-01
      -11 -1    0    0    0    0 +0.0000000000e+00 +0.0000000000e+00 +1.2000000000e+02 1.2000000000e+02 0.0000000000e+00 0.0000e+00 -1.0000e+00
       11 -1    0    0    0    0 -0.0000000000e+00 -0.0000000000e+00 -1.2000000000e+02 1.2000000000e+02 0.0000000000e+00 0.0000e+00 1.0000e+00
       23  2    1    2    0    0 -3.4761440933e+01 -3.5145144355e+01 +1.1921857653e+01 1.0505301291e+02 9.1926415599e+01 0.0000e+00 0.0000e+00
       25  2    1    2    0    0 +3.4761440933e+01 +3.5145144355e+01 -1.1921857653e+01 1.3494698709e+02 1.2500007875e+02 0.0000e+00 0.0000e+00
      -13  1    3    3    0    0 +1.4315104882e+00 +2.1281804962e+01 +2.8881570589e+01 3.5904171964e+01 0.0000000000e+00 0.0000e+00 -1.0000e+00
       13  1    3    3    0    0 -3.6192951421e+01 -5.6426949317e+01 -1.6959712936e+01 6.9148840950e+01 0.0000000000e+00 0.0000e+00 1.0000e+00
        5  1    4    4  501    0 +1.0253724492e+01 +1.2074642606e+01 +1.7370199807e+01 2.3973937961e+01 4.7000000000e+00 0.0000e+00 1.0000e+00
       -5  1    4    4    0  502 -6.8607856649e+00 -9.4336206241e+00 -9.7582067531e+00 1.5917794353e+01 4.7000000000e+00 0.0000e+00 1.0000e+00
        5  1    4    4  502    0 +3.4835943857e+00 -1.3346337710e+01 -3.5907971484e+01 3.8752194469e+01 4.7000000000e+00 0.0000e+00 1.0000e+00
       -5  1    4    4    0  501 +2.7884907720e+01 +4.5850460083e+01 +1.6374120776e+01 5.6303060304e+01 4.7000000000e+00 0.0000e+00 1.0000e+00
</event>
<event>
10      1 +4.6527485e-10 2.40000000e+02 7.81860800e-03 1.03012300e-01
      -11 -1    0    0    0    0 +0.0000000000e+00 +0.0000000000e+00 +1.2000000000e+02 1.2000000000e+02 0.0000000000e+00 0.0000e+00 1.0000e+00
       11 -1    0    0    0    0 -0.0000000000e+00 -0.0000000000e+00 -1.2000000000e+02 1.2000000000e+02 0.0000000000e+00 0.0000e+00 -1.0000e+00
       23  2    1    2    0    0 -2.0975936782e+01 +1.0216028802e+01 +4.6743670762e+01 1.0452219117e+02 9.0529335149e+01 0.0000e+00 0.0000e+00
       25  2    1    2    0    0 +2.0975936782e+01 -1.0216028802e+01 -4.6743670762e+01 1.3547780883e+02 1.2499963504e+02 0.0000e+00 0.0000e+00
      -11  1    3    3    0    0 +1.9147150256e+01 +2.7447420512e+01 -8.0858344814e+00 3.4428984518e+01 0.0000000000e+00 0.0000e+00 -1.0000e+00
       11  1    3    3    0    0 -4.0123087038e+01 -1.7231391710e+01 +5.4829505243e+01 7.0093206653e+01 0.0000000000e+00 0.0000e+00 1.0000e+00
        5  1    4    4  501    0 +1.5977887922e+01 -8.4790585498e+00 -2.3018840528e+01 2.9650368557e+01 4.7000000000e+00 0.0000e+00 -1.0000e+00
       -5  1    4    4    0  501 +1.3301030406e+01 -1.2763286430e+01 -5.9585287156e+01 6.2548503865e+01 4.7000000000e+00 0.0000e+00 -1.0000e+00
        5  1    4    4  502    0 +3.5448743281e+00 -1.6286103133e+00 +7.0473191549e+00 9.3259429993e+00 4.7000000000e+00 0.0000e+00 1.0000e+00
       -5  1    4    4    0  502 -1.1847855874e+01 +1.2654926492e+01 +2.8813137767e+01 3.3952993407e+01 4.7000000000e+00 0.0000e+00 -1.0000e+00
</event>
<event>
10      1 +4.6527485e-10 2.40000000e+02 7.81860800e-03 1.03012300e-01
      -11 -1    0    0    0    0 +0.0000000000e+00 +0.0000000000e+00 +1.2000000000e+02 1.2000000000e+02 0.0000000000e+00 0.0000e+00 1.0000e+00
       11 -1    0    0    0    0 -0.0000000000e+00 -0.0000000000e+00 -1.2000000000e+02 1.2000000000e+02 0.0000000000e+00 0.0000e+00 -1.0000e+00
       23  2    1    2    0    0 +3.1250039229e+01 -1.4347962283e+01 -3.4368944870e+01 1.0587895675e+02 9.4056898399e+01 0.0000e+00 0.0000e+00
       25  2    1    2    0    0 -3.1250039229e+01 +1.4347962283e+01 +3.4368944870e+01 1.3412104325e+02 1.2499920359e+02 0.0000e+00 0.0000e+00
      -11  1    3    3    0    0 -1.2646979649e+01 -2.7229355941e+01 -4.9328895789e+01 5.7747068142e+01 0.0000000000e+00 0.0000e+00 -1.0000e+00
       11  1    3    3    0    0 +4.3897018879e+01 +1.2881393658e+01 +1.4959950919e+01 4.8131888603e+01 0.0000000000e+00 0.0000e+00 1.0000e+00
        5  1    4    4  501    0 -2.4836299097e+01 -1.7514061598e+01 -3.3332813884e+01 4.5351412193e+01 4.7000000000e+00 0.0000e+00 -1.0000e+00
       -5  1    4    4    0  502 -7.8972573975e+00 +7.5816622421e+00 +3.7906110649e-01 1.1919813928e+01 4.7000000000e+00 0.0000e+00 -1.0000e+00
        5  1    4    4  502    0 -5.2696930867e+00 +1.9360650052e+01 +2.0544117986e+01 2.9099058739e+01 4.7000000000e+00 0.0000e+00 1.0000e+00
       -5  1    4    4    0  501 +6.7532103516e+00 +4.9197115873e+00 +4.6778579662e+01 4.7750758395e+01 4.7000000000e+00 0.0000e+00 1.0000e+00
</event>
<event>
10      1 +4.6527485e-10 2.40000000e+02 7.81860800e-03 1.03012300e-01
      -11 -1    0    0    0    0 +0.0000000000e+00 +0.0000000000e+00 +1.2000000000e+02 1.2000000000e+02 0.0000000000e+00 0.0000e+00 -1.0000e+00
       11 -1    0    0    0    0 -0.0000000000e+00 -0.0000000000e+00 -1.2000000000e+02 1.2000000000e+02 0.0000000000e+00 0.0000e+00 1.0000e+00
       23  2    1    2    0    0 -9.7598068238e+00 -4.8579582956e+01 +1.5776648939e+01 1.0461315554e+02 9.0773233675e+01 0.0000e+00 0.0000e+00
       25  2    1    2    0    0 +9.7598068238e+00 +4.8579582956e+01 -1.5776648939e+01 1.3538684446e+02 1.2500186115e+02 0.0000e+00 0.0000e+00
      -11  1    3    3    0    0 -4.6203397025e+01 -2.1236405048e+01 -1.0635108142e+01 5.1950402512e+01 0.0000000000e+00 0.0000e+00 1.0000e+00
       11  1    3    3    0    0 +3.6443590201e+01 -2.7343177909e+01 +2.6411757081e+01 5.2662753033e+01 0.0000000000e+00 0.0000e+00 -1.0000e+00
        5  1    4    4  501    0 +4.4696505069e+00 +4.9742536204e+00 +5.2090574623e-01 8.1903795718e+00 4.7000000000e+00 0.0000e+00 -1.0000e+00
       -5  1    4    4    0  502 +1.9788925412e+00 +1.1382318587e+01 -2.1456119331e+01 2.4817901782e+01 4.7000000000e+00 0.0000e+00 1.0000e+00
        5  1    4    4  502    0 -2.9357253033e+01 +1.1904195075e+01 -3.4398247793e+01 4.6998804424e+01 4.7000000000e+00 0.0000e+00 1.0000e+00
       -5  1    4    4    0  501 +3.2668516809e+01 +2.0318815673e+01 +3.9556812439e+01 5.5379758678e+01 4.7000000000e+00 0.0000e+00 -1.0000e+00
</event>
<event>
10      1 +4.6527485e-10 2.40000000e+02 7.81860800e-03 1.03012300e-01
      -11 -1    0    0    0    0 +0.0000000000e+00 +0.0000000000e+00 +1.2000000000e+02 1.2000000000e+02 0.0000000000e+00 0.0000e+00 1.0000e+00
       11 -1    0    0    0    0 -0.0000000000e+00 -0.0000000000e+00 -1.2000000000e+02 1.2000000000e+02 0.0000000000e+00 0.0000e+00 -1.0000e+00
       23  2    1    2    0    0 +7.5688015308e+00 -4.6765777873e+01 +2.2853716578e+01 1.0438476981e+02 9.0164089690e+01 0.0000e+00 0.0000e+00
       25  2    1    2    0    0 -7.5688015308e+00 +4.6765777873e+01 -2.2853716578e+01 1.3561523019e+02 1.2499949425e+02 0.0000e+00 0.0000e+00
      -11  1    3    3    0    0 -2.7892043309e+01 -5.4796737812e+01 +8.8674117994e-02 6.1487042683e+01 0.0000000000e+00 0.0000e+00 1.0000e+00
       11  1    3    3    0    0 +3.5460844839e+01 +8.0309599389e+00 +2.2765042460e+01 4.2897727125e+01 0.0000000000e+00 0.0000e+00 -1.0000e+00
        5  1    4    4  501    0 +1.9400960007e+01 +2.7792362673e+00 +1.1079696323e+01 2.2999371166e+01 4.7000000000e+00 0.0000e+00 1.0000e+00
       -5  1    4    4    0  502 -3.2185510710e+01 +1.8061640318e+00 -1.8302026229e+01 3.7366074081e+01 4.7000000000e+00 0.0000e+00 1.0000e+00
        5  1    4    4  502    0 -2.4341649587e+01 +1.6768269232e+01 -1.9617655857e+01 3.5785935491e+01 4.7000000000e+00 0.0000e+00 1.0000e+00
       -5  1    4    4    0  501 +2.9557398759e+01 +2.5412108342e+01 +3.9862691857e+00 3.9463849455e+01 4.7000000000e+00 0.0000e+00 1.0000e+00
</event>
<event>
10      1 +4.6527485e-10 2.40000000e+02 7.81860800e-03 1.03012300e-01
      -11 -1    0    0    0    0 +0.0000000000e+00 +0.0000000000e+00 +1.2000000000e+02 1.2000000000e+02 0.0000000000e+00 0.0000e+00 1.0000e+00
       11 -1    0    0    0    0 -0.0000000000e+00 -0.0000000000e+00 -1.2000000000e+02 1.2000000000e+02 0.0000000000e+00 0.0000e+00 -1.0000e+00
       23  2    1    2    0    0 +1.6444363975e+01 -4.6796309509e+01 +2.1633480879e+01 1.0378945389e+02 8.8565972890e+01 0.0000e+00 0.0000e+00
       25  2    1    2    0    0 -1.6444363975e+01 +4.6796309509e+01 -2.1633480879e+01 1.3621054611e+02 1.2499997474e+02 0.0000e+00 0.0000e+00
      -11  1    3    3    0    0 -2.5504140172e+00 +7.9126269059e+00 +4.1683368143e+01 4.2504322792e+01 0.0000000000e+00 0.0000e+00 1.0000e+00
       11  1    3    3    0    0 +1.8994777992e+01 -5.4708936415e+01 -2.0049887264e+01 6.1285131100e+01 0.0000000000e+00 0.0000e+00 -1.0000e+00
        5  1    4    4  501    0 +1.8333310643e+01 -5.8765489002e-01 -8.5234113147e+00 2.0765215093e+01 4.7000000000e+00 0.0000e+00 -1.0000e+00
       -5  1    4    4    0  502 -3.7436855694e+01 +2.4584832006e+01 -2.1601539446e+01 4.9946457687e+01 4.7000000000e+00 0.0000e+00 -1.0000e+00
        5  1    4    4  502    0 -2.7132895416e+01 +3.7845127321e+00 +1.0681663797e+01 2.9777583712e+01 4.7000000000e+00 0.0000e+00 -1.0000e+00
       -5  1    4    4    0  501 +2.9792076492e+01 +1.9014619660e+01 -2.1901939155e+00 3.5721289617e+01 4.7000000000e+00 0.0000e+00 -1.0000e+00
</event>
<event>
10      1 +4.6527485e-10 2.40000000e+02 7.81860800e-03 1.03012300e-01
      -11 -1    0    0    0    0 +0.0000000000e+00 +0.0000000000e+00 +1.2000000000e+02 1.2000000000e+02 0.0000000000e+00 0.0000e+00 1.0000e+00
       11 -1    0    0    0    0 -0.0000000000e+00 -0.0000000000e+00 -1.2000000000e+02 1.2000000000e+02 0.0000000000e+00 0.0000e+00 -1.0000e+00
       23  2    1    2    0    0 -4.0968756707e+01 +2.6370849510e+01 +2.2086788058e+01 1.0403336475e+02 8.9225859731e+01 0.0000e+00 0.0000e+00
       25  2    1    2    0    0 +4.0968756707e+01 -2.6370849510e+01 -2.2086788058e+01 1.3596663525e+02 1.2500095585e+02 0.0000e+00 0.0000e+00
      -11  1    3    3    0    0 -6.2540783313e+01 +4.2285761091e+00 +3.3508181582e+01 7.1077624231e+01 0.0000000000e+00 0.0000e+00 1.0000e+00
       11  1    3    3    0    0 +2.1572026606e+01 +2.2142273401e+01 -1.1421393524e+01 3.2955740521e+01 0.0000000000e+00 0.0000e+00 -1.0000e+00
        5  1    4    4  501    0 +2.6411807793e+00 +5.8229619025e-01 -3.2246547634e-01 5.4322084593e+00 4.7000000000e+00 0.0000e+00 -1.0000e+00
       -5  1    4    4    0  501 +7.2917440784e+01 +9.7194032331e+00 -2.1273757578e+01 7.6720810287e+01 4.7000000000e+00 0.0000e+00 1.0000e+00
        5  1    4    4  502    0 -2.9812697449e+01 -2.6477734261e+01 -5.6923862314e+00 4.0550716415e+01 4.7000000000e+00 0.0000e+00 1.0000e+00
       -5  1    4    4    0  502 -4.7771674070e+00 -1.0194814672e+01 +5.2018212283e+00 1.3262900087e+01 4.7000000000e+00 0.0000e+00 -1.0000e+00
</event>
<event>
10      1 +4.6527485e-10 2.40000000e+02 7.81860800e-03 1.03012300e-01
      -11 -1    0    0    0    0 +0.0000000000e+00 +0.0000000000e+00 +1.2000000000e+02 1.2000000000e+02 0.0000000000e+00 0.0000e+00 -1.0000e+00
       11 -1    0    0    0    0 -0.0000000000e+00 -0.0000000000e+00 -1.2000000000e+02 1.2000000000e+02 0.0000000000e+00 0.0000e+00 1.0000e+00
       23  2    1    2    0    0 +2.8248066020e+01 -3.1961955246e+01 +3.4505772663e+01 1.0348840011e+02 8.7747825011e+01 0.0000e+00 0.0000e+00
       25  2    1    2    0    0 -2.8248066020e+01 +3.1961955246e+01 -3.4505772663e+01 1.3651159989e+02 1.2500099495e+02 0.0000e+00 0.0000e+00
      -11  1    3    3    0    0 +3.2673037614e+01 +1.1906300780e+01 +4.6245541008e+01 5.7861364037e+01 0.0000000000e+00 0.0000e+00 -1.0000e+00
       11  1    3    3    0    0 -4.4249715937e+00 -4.3868256026e+01 -1.1739768345e+01 4.5627036077e+01 0.0000000000e+00 0.0000e+00 1.0000e+00
        5  1    4    4  501    0 +2.9769070318e+00 +1.3295467580e+01 -2.0770498591e+01 2.5281120334e+01 4.7000000000e+00 0.0000e+00 -1.0000e+00
       -5  1    4    4    0  501 -2.2277928247e+01 +3.0914391403e+01 -5.2100103093e+01 6.4718748637e+01 4.7000000000e+00 0.0000e+00 -1.0000e+00
        5  1    4    4  502    0 +2.8618969803e+00 +1.6162271521e+00 +1.7524290220e+01 1.8438909736e+01 4.7000000000e+00 0.0000e+00 -1.0000e+00
       -5  1    4    4    0  502 -1.1808941785e+01 -1.3864130889e+01 +2.0840538802e+01 2.8072821179e+01 4.7000000000e+00 0.0000e+00 -1.0000e+00
</event>
<event>
10      1 +4.6527485e-10 2.40000000e+02 7.81860800e-03 1.03012300e-01
      -11 -1    0    0    0    0 +0.0000000000e+00 +0.0000000000e+00 +1.2000000000e+02 1.2000000000e+02 0.0000000000e+00 0.0000e+00 1.0000e+00
       11 -1    0    0    0    0 -0.0000000000e+00 -0.0000000000e+00 -1.2000000000e+02 1.2000000000e+02 0.0000000000e+00 0.0000e+00 -1.0000e+00
       23  2    1    2    0    0 -3.9037841783e+00 +3.2091010029e+01 -3.6998566063e+01 1.0568569787e+02 9.3570830866e+01 0.0000e+00 0.0000e+00
       25  2    1    2    0    0 +3.9037841783e+00 -3.2091010029e+01 +3.6998566063e+01 1.3431430213e+02 1.2500546152e+02 0.0000e+00 0.0000e+00
      -11  1    3    3    0    0 -3.2488595705e+01 -7.5781875013e+00 -4.5127130734e+01 5.6119477055e+01 0.0000000000e+00 0.0000e+00 -1.0000e+00
       11  1    3    3    0    0 +2.8584811527e+01 +3.9669197530e+01 +8.1285646706e+00 4.9566220819e+01 0.0000000000e+00 0.0000e+00 1.0000e+00
        5  1    4    4  501    0 -1.6606019502e+01 +4.4049494794e+00 +5.1570687175e+01 5.4559960038e+01 4.7000000000e+00 0.0000e+00 1.0000e+00
       -5  1    4    4    0  501 -9.1865280547e+00 -1.8420121341e+01 +1.7831511395e+01 2.7635954236e+01 4.7000000000e+00 0.0000e+00 1.0000e+00
        5  1    4    4  502    0 +1.7486135568e+00 +2.3402104276e+00 -2.2461688986e+00 5.9723955778e+00 4.7000000000e+00 0.0000e+00 1.0000e+00
       -5  1    4    4    0  502 +2.7947718178e+01 -2.0416048595e+01 -3.0157463609e+01 4.6145992274e+01 4.7000000000e+00 0.0000e+00 1.0000e+00
</event>
<event>
10      1 +4.6527485e-10 2.40000000e+02 7.81860800e-03 1.03012300e-01
      -11 -1    0    0    0    0 +0.0000000000e+00 +0.0000000000e+00 +1.2000000000e+02 1.2000000000e+02 0.0000000000e+00 0.0000e+00 -1.0000e+00
       11 -1    0    0    0    0 -0.0000000000e+00 -0.0000000000e+00 -1.2000000000e+02 1.2000000000e+02 0.0000000000e+00 0.0000e+00 1.0000e+00
       23  2    1    2    0    0 +3.4869219575e+01 -3.1057972144e+01 +6.5580063517e+00 1.0636341241e+02 9.5339959859e+01 0.0000e+00 0.0000e+00
       25  2    1    2    0    0 -3.4869219575e+01 +3.1057972144e+01 -6.5580063517e+00 1.3363658759e+02 1.2504107320e+02 0.0000e+00 0.0000e+00
      -13  1    3    3    0    0 -1.2463826507e+01 -3.0463836412e+00 +3.9990784624e+01 4.1998693781e+01 0.0000000000e+00 0.0000e+00 -1.0000e+00
       13  1    3    3    0    0 +4.7333046082e+01 -2.8011588503e+01 -3.3432778272e+01 6.4364718634e+01 0.0000000000e+00 0.0000e+00 1.0000e+00
        5  1    4    4  501    0 -6.4369370938e+01 +1.5965431635e+01 -1.4551655131e+01 6.8059911764e+01 4.7000000000e+00 0.0000e+00 1.0000e+00
       -5  1    4    4    0  502 +1.6378384829e+01 +4.5818171050e+00 +2.1157195397e+01 2.7549255066e+01 4.7000000000e+00 0.0000e+00 1.0000e+00
        5  1    4    4  502    0 +2.0860779559e+01 +5.3364447174e+00 -1.5982416419e+01 2.7224573470e+01 4.7000000000e+00 0.0000e+00 1.0000e+00
       -5  1    4    4    0  501 -7.7390130246e+00 +5.1742786864e+00 +2.8188698001e+00 1.0802847285e+01 4.7000000000e+00 0.0000e+00 1.0000e+00
</event>
<event>
10      1 +4.6527485e-10 2.40000000e+02 7.81860800e-03 1.03012300e-01
      -11 -1    0    0    0    0 +0.0000000000e+00 +0.0000000000e+00 +1.2000000000e+02 1.2000000000e+02 0.0000000000e+00 0.0000e+00 1.0000e+00
       11 -1    0    0    0    0 -0.0000000000e+00 -0.0000000000e+00 -1.2000000000e+02 1.2000000000e+02 0.0000000000e+00 0.0000e+00 -1.0000e+00
       23  2    1    2    0    0 +1.9580832452e+01 +3.1632294381e+01 +3.6573718490e+01 1.0456546274e+02 9.0621675475e+01 0.0000e+00 0.0000e+00
       25  2    1    2    0    0 -1.9580832452e+01 -3.1632294381e+01 -3.6573718490e+01 1.3543453726e+02 1.2498346271e+02 0.0000e+00 0.0000e+00
      -13  1    3    3    0    0 +4.3608241533e+01 +4.7048002541e+01 +8.8248922362e+00 6.4753934210e+01 0.0000000000e+00 0.0000e+00 -1.0000e+00
       13  1    3    3    0    0 -2.4027409081e+01 -1.5415708160e+01 +2.7748826254e+01 3.9811528527e+01 0.0000000000e+00 0.0000e+00 1.0000e+00
        5  1    4    4  501    0 +2.1374550684e+01 -1.0225879498e+01 +1.2705251141e+01 2.7293835110e+01 4.7000000000e+00 0.0000e+00 -1.0000e+00
       -5  1    4    4    0  502 +3.6180043580e-01 -1.7123520766e+00 -9.2900886902e+00 1.0557404845e+01 4.7000000000e+00 0.0000e+00 -1.0000e+00
        5  1    4    4  502    0 -5.5088853299e+01 +3.1847262292e+00 -4.3257684342e+01 7.0272622646e+01 4.7000000000e+00 0.0000e+00 -1.0000e+00
       -5  1    4    4    0  501 +1.3771669727e+01 -2.2878789035e+01 +3.2688034014e+00 2.7310674661e+01 4.7000000000e+00 0.0000e+00 -1.0000e+00
</event>
<event>
10      1 +4.6527485e-10 2.40000000e+02 7.81860800e-03 1.03012300e-01
      -11 -1    0    0    0    0 +0.0000000000e+00 +0.0000000000e+00 +1.2000000000e+02 1.2000000000e+02 0.0000000000e+00 0.0000e+00 -1.0000e+00
       11 -1    0    0    0    0 -0.0000000000e+00 -0.0000000000e+00 -1.2000000000e+02 1.2000000000e+02 0.0000000000e+00 0.0000e+00 1.0000e+00
       23  2    1    2    0    0 -2.1792298457e+01 -1.6661975948e+00 -4.6519249751e+01 1.0484572322e+02 9.1383283993e+01 0.0000e+00 0.0000e+00
       25  2    1    2    0    0 +2.1792298457e+01 +1.6661975948e+00 +4.6519249751e+01 1.3515427678e+02 1.2499982979e+02 0.0000e+00 0.0000e+00
      -11  1    3    3    0    0 -4.6075549223e+01 +1.2817710411e+00 +6.4103389216e+00 4.6536991935e+01 0.0000000000e+00 0.0000e+00 -1.0000e+00
       11  1    3    3    0    0 +2.4283250767e+01 -2.9479686359e+00 -5.2929588672e+01 5.8308731284e+01 0.0000000000e+00 0.0000e+00 1.0000e+00
        5  1    4    4  501    0 +2.9238367172e+01 -2.2255766269e+01 +1.7356161424e+01 4.0908771510e+01 4.7000000000e+00 0.0000e+00 -1.0000e+00
       -5  1    4    4    0  501 +2.4654870402e+01 -1.9214802051e+00 +3.7215444248e+01 4.4929211113e+01 4.7000000000e+00 0.0000e+00 -1.0000e+00
        5  1    4    4  502    0 -3.8401895004e+00 +1.6941114320e+01 +8.7265548552e-01 1.8016657221e+01 4.7000000000e+00 0.0000e+00 -1.0000e+00
       -5  1    4    4    0  502 -2.8260749616e+01 +8.9023297486e+00 -8.9250114066e+00 3.1299636938e+01 4.7000000000e+00 0.0000e+00 -1.0000e+00
</event>
<event>
10      1 +4.6527485e-10 2.40000000e+02 7.81860800e-03 1.03012300e-01
      -11 -1    0    0    0    0 +0.0000000000e+00 +0.0000000000e+00 +1.2000000000e+02 1.2000000000e+02 0.0000000000e+00 0.0000e+00 -1.0000e+00
       11 -1    0    0    0    0 -0.0000000000e+00 -0.0000000000e+00 -1.2000000000e+02 1.2000000000e+02 0.0000000000e+00 0.0000e+00 1.0000e+00
       23  2    1    2    0    0 -3.7198063501e+01 +2.6080580971e+01 +6.1483923177e+00 1.0682917681e+02 9.6492370985e+01 0.0000e+00 0.0000e+00
       25  2    1    2    0    0 +3.7198063501e+01 -2.6080580971e+01 -6.1483923177e+00 1.3317082319e+02 1.2503108729e+02 0.0000e+00 0.0000e+00
      -13  1    3    3    0    0 -5.3992831055e+01 +5.2107692409e+01 -9.8630634617e-01 7.5042722590e+01 0.0000000000e+00 0.0000e+00 1.0000e+00
       13  1    3    3    0    0 +1.6794767554e+01 -2.6027111438e+01 +7.1346986638e+00 3.1786454222e+01 0.0000000000e+00 0.0000e+00 -1.0000e+00
        5  1    4    4  501    0 -1.4952971110e-01 +2.5924025123e+01 +4.8800586216e+00 2.6795193783e+01 4.7000000000e+00 0.0000e+00 -1.0000e+00
       -5  1    4    4    0  501 +1.6934944244e+01 +1.6173053241e+01 +1.4958641417e+01 2.8181748362e+01 4.7000000000e+00 0.0000e+00 -1.0000e+00
        5  1    4    4  502    0 +6.4233152226e+00 -4.0504274980e+01 -8.0244367291e+00 4.2051597531e+01 4.7000000000e+00 0.0000e+00 -1.0000e+00
       -5  1    4    4    0  502 +1.3989333746e+01 -2.7673384355e+01 -1.7962655627e+01 3.6142283513e+01 4.7000000000e+00 0.0000e+00 -1.0000e+00
</event>
<event>
10      1 +4.6527485e-10 2.40000000e+02 7.81860800e-03 1.03012300e-01
      -11 -1    0    0    0    0 +0.0000000000e+00 +0.0000000000e+00 +1.2000000000e+02 1.2000000000e+02 0.0000000000e+00 0.0000e+00 -1.0000e+00
       11 -1    0    0    0    0 -0.0000000000e+00 -0.0000000000e+00 -1.2000000000e+02 1.2000000000e+02 0.0000000000e+00 0.0000e+00 1.0000e+00
       23  2    1    2    0    0 -3.2354163037e+01 +1.0015410076e+00 -3.7323308923e+01 1.0559953596e+02 9.3329725463e+01 0.0000e+00 0.0000e+00
       25  2    1    2    0    0 +3.2354163037e+01 -1.0015410076e+00 +3.7323308923e+01 1.3440046404e+02 1.2499064123e+02 0.0000e+00 0.0000e+00
      -11  1    3    3    0    0 -4.9095487913e+01 +1.8565173278e+01 -5.4657885414e+01 7.5779397136e+01 0.0000000000e+00 0.0000e+00 1.0000e+00
       11  1    3    3    0    0 +1.6741324876e+01 -1.7563632270e+01 +1.7334576492e+01 2.9820138820e+01 0.0000000000e+00 0.0000e+00 -1.0000e+00
        5  1    4    4  501    0 +1.4879579751e+01 -3.0082542770e+00 +9.9730079500e+00 1.8761726331e+01 4.7000000000e+00 0.0000e+00 -1.0000e+00
       -5  1    4    4    0  502 -3.4822600394e+01 +1.0233040587e+01 +7.2006947851e+00 3.7299713447e+01 4.7000000000e+00 0.0000e+00 1.0000e+00
        5  1    4    4  502    0 -8.2901536839e+00 -8.9297172280e+00 +1.0599489611e+01 1.6819800174e+01 4.7000000000e+00 0.0000e+00 1.0000e+00
       -5  1    4    4    0  501 +6.0587337364e+01 +7.0338990991e-01 +9.5501165765e+00 6.1519224092e+01 4.7000000000e+00 0.0000e+00 1.0000e+00
</event>
<event>
10      1 +4.6527485e-10 2.40000000e+02 7.81860800e-03 1.03012300e-01
      -11 -1    0    0    0    0 +0.0000000000e+00 +0.0000000000e+00 +1.2000000000e+02 1.2000000000e+02 0.0000000000e+00 0.0000e+00 1.0000e+00
       11 -1    0    0    0    0 -0.0000000000e+00 -0.0000000000e+00 -1.2000000000e+02 1.2000000000e+02 0.0000000000e+00 0.0000e+00 -1.0000e+00
       23  2    1    2    0    0 -9.9374134710e+00 +4.0510978967e+01 +3.2915315995e+01 1.0417233894e+02 8.9602268772e+01 0.0000e+00 0.0000e+00
       25  2    1    2    0    0 +9.9374134710e+00 -4.0510978967e+01 -3.2915315995e+01 1.3582766106e+02 1.2500337547e+02 0.0000e+00 0.0000e+00
      -13  1    3    3    0    0 +2.1093521457e+01 -1.4217555258e+00 -2.0543606004e+01 2.9478768358e+01 0.0000000000e+00 0.0000e+00 -1.0000e+00
       13  1    3    3    0    0 -3.1030934928e+01 +4.1932734492e+01 +5.3458921999e+01 7.4693570579e+01 0.0000000000e+00 0.0000e+00 1.0000e+00
        5  1    4    4  501    0 -7.8695621330e-01 -5.7009366833e+00 -1.4218942087e+01 1.6043325504e+01 4.7000000000e+00 0.0000e+00 1.0000e+00
       -5  1    4    4    0  502 +6.4280859636e+00 -7.1260363861e+00 +4.1412573086e+00 1.1460396844e+01 4.7000000000e+00 0.0000e+00 -1.0000e+00
        5  1    4    4  502    0 +2.0832762682e+01 -6.0445125755e+01 -2.9770300874e+01 7.0682232864e+01 4.7000000000e+00 0.0000e+00 1.0000e+00
       -5  1    4    4    0  501 -1.6536478961e+01 +3.2761119858e+01 +6.9326696568e+00 3.7641705851e+01 4.7000000000e+00 0.0000e+00 1.0000e+00
</event>
<event>
10      1 +4.6527485e-10 2.40000000e+02 7.81860800e-03 1.03012300e-01
      -11 -1    0    0    0    0 +0.0000000000e+00 +0.0000000000e+00 +1.2000000000e+02 1.2000000000e+02 0.0000000000e+00 0.0000e+00 -1.0000e+00
       11 -1    0    0    0    0 -0.0000000000e+00 -0.0000000000e+00 -1.2000000000e+02 1.2000000000e+02 0.0000000000e+00 0.0000e+00 1.0000e+00
       23  2    1    2    0    0 -4.3845338843e+01 +2.2351544562e+01 +1.8853867134e+01 1.0434345560e+02 9.0056000013e+01 0.0000e+00 0.0000e+00
       25  2    1    2    0    0 +4.3845338843e+01 -2.2351544562e+01 -1.8853867134e+01 1.3565654440e+02 1.2500089780e+02 0.0000e+00 0.0000e+00
      -13  1    3    3    0    0 -3.1850673675e+01 +5.4344655604e+00 -3.4399595366e+01 4.7194607646e+01 0.0000000000e+00 0.0000e+00 1.0000e+00
       13  1    3    3    0    0 -1.1994665168e+01 +1.6917079001e+01 +5.3253462500e+01 5.7148847955e+01 0.0000000000e+00 0.0000e+00 -1.0000e+00
        5  1    4    4  501    0 +1.9224801483e+01 -4.0391298701e+01 -3.9019224526e+01 5.9545275929e+01 4.7000000000e+00 0.0000e+00 1.0000e+00
       -5  1    4    4    0  501 +1.0586273878e+01 -6.3326339992e+00 -1.9289828973e+01 2.3374322446e+01 4.7000000000e+00 0.0000e+00 1.0000e+00
        5  1    4    4  502    0 +3.0439012860e+00 +1.8905257442e+01 +3.2108065460e+01 3.7678799896e+01 4.7000000000e+00 0.0000e+00 -1.0000e+00
       -5  1    4    4    0  502 +1.0990362195e+01 +5.4671306972e+00 +7.3471209045e+00 1.5058146129e+01 4.7000000000e+00 0.0000e+00 -1.0000e+00
</event>
<event>
10      1 +4.6527485e-10 2.40000000e+02 7.81860800e-03 1.03012300e-01
      -11 -1    0    0    0    0 +0.0000000000e+00 +0.0000000000e+00 +1.2000000000e+02 1.2000000000e+02 0.0000000000e+00 0.0000e+00 -1.0000e+00
       11 -1    0    0    0    0 -0.0000000000e+00 -0.0000000000e+00 -1.2000000000e+02 1.2000000000e+02 0.0000000000e+00 0.0000e+00 1.0000e+00
       23  2    1    2    0    0 -3.9672176403e+01 +2.4102098703e+01 +2.2808230340e+01 1.0472377639e+02 9.1060755699e+01 0.0000e+00 0.0000e+00
       25  2    1    2    0    0 +3.9672176403e+01 -2.4102098703e+01 -2.2808230340e+01 1.3527622361e+02 1.2499859423e+02 0.0000e+00 0.0000e+00
      -11  1    3    3    0    0 -3.8663367997e+01 -2.7349923735e+01 -2.3993995805e+00 4.7419737151e+01 0.0000000000e+00 0.0000e+00 -1.0000e+00
       11  1    3    3    0    0 -1.0088084067e+00 +5.1452022437e+01 +2.5207629921e+01 5.7304039243e+01 0.0000000000e+00 0.0000e+00 1.0000e+00
        5  1    4    4  501    0 -8.2745074533e+00 +1.4269201514e+01 -2.5578361265e+01 3.0796430807e+01 4.7000000000e+00 0.0000e+00 1.0000e+00
       -5  1    4    4    0  501 -1.1070660910e+01 -5.4422770807e+00 -2.5232671378e+01 2.8477282485e+01 4.7000000000e+00 0.0000e+00 1.0000e+00
        5  1    4    4  502    0 +4.7469065665e+01 -3.3163839613e+01 +2.1579312885e+01 6.1975069162e+01 4.7000000000e+00 0.0000e+00 1.0000e+00
       -5  1    4    4    0  502 +1.1548279102e+01 +2.3481647722e-01 +6.4234894184e+00 1.4027441153e+01 4.7000000000e+00 0.0000e+00 1.0000e+00
</event>
<event>
10      1 +4.6527485e-10 2.40000000e+02 7.81860800e-03 1.03012300e-01
      -11 -1    0    0    0    0 +0.0000000000e+00 +0.0000000000e+00 +1.2000000000e+02 1.2000000000e+02 0.0000000000e+00 0.0000e+00 1.0000e+00
       11 -1    0    0    0    0 -0.0000000000e+00 -0.0000000000e+00 -1.2000000000e+02 1.2000000000e+02 0.0000000000e+00 0.0000e+00 -1.0000e+00
       23  2    1    2    0    0 -3.2669176492e+01 +2.5812212664e+01 -2.7762396235e+01 1.0535228618e+02 9.2708188112e+01 0.0000e+00 0.0000e+00
       25  2    1    2    0    0 +3.2669176492e+01 -2.5812212664e+01 +2.7762396235e+01 1.3464771382e+02 1.2500284308e+02 0.0000e+00 0.0000e+00
      -13  1    3    3    0    0 -5.6687030092e+01 -1.0134461841e+01 -9.2531667377e+00 5.8324504217e+01 0.0000000000e+00 0.0000e+00 -1.0000e+00
       13  1    3    3    0    0 +2.4017853601e+01 +3.5946674505e+01 -1.8509229497e+01 4.7027781961e+01 0.0000000000e+00 0.0000e+00 1.0000e+00
        5  1    4    4  501    0 +3.8348346314e+01 -3.1653922047e+01 -4.7514073731e+00 5.0172027247e+01 4.7000000000e+00 0.0000e+00 -1.0000e+00
       -5  1    4    4    0  501 +9.8416093593e+00 -2.1700901469e+01 -1.0215244419e+01 2.6348199519e+01 4.7000000000e+00 0.0000e+00 -1.0000e+00
        5  1    4    4  502    0 -1.8762346805e+01 +1.2117344564e+01 +2.7192728977e+01 3.5501974680e+01 4.7000000000e+00 0.0000e+00 1.0000e+00
       -5  1    4    4    0  502 +3.2415676237e+00 +1.5425266288e+01 +1.5536319050e+01 2.2625512377e+01 4.7000000000e+00 0.0000e+00 1.0000e+00
</event>
<event>
10      1 +4.6527485e-10 2.40000000e+02 7.81860800e-03 1.03012300e-01
      -11 -1    0    0    0    0 +0.0000000000e+00 +0.0000000000e+00 +1.2000000000e+02 1.2000000000e+02 0.0000000000e+00 0.0000e+00 -1.0000e+00
       11 -1    0    0    0    0 -0.0000000000e+00 -0.0000000000e+00 -1.2000000000e+02 1.2000000000e+02 0.0000000000e+00 0.0000e+00 1.0000e+00
       23  2    1    2    0    0 +5.3828399439e+00 +5.2905442122e+01 +8.9183656460e+00 1.0385952419e+02 8.8765436668e+01 0.0000e+00 0.0000e+00
       25  2    1    2    0    0 -5.3828399439e+00 -5.2905442122e+01 -8.9183656460e+00 1.3614047581e+02 1.2500692435e+02 0.0000e+00 0.0000e+00
      -11  1    3    3    0    0 -3.4326613640e+01 +3.2316981828e+01 +2.8435893832e+01 5.5057277235e+01 0.0000000000e+00 0.0000e+00 -1.0000e+00
       11  1    3    3    0    0 +3.9709453584e+01 +2.0588460293e+01 -1.9517528186e+01 4.8802246953e+01 0.0000000000e+00 0.0000e+00 1.0000e+00
        5  1    4    4  501    0 -1.3782156295e+01 +6.7776763889e-02 +1.0266501876e+01 1.7816943806e+01 4.7000000000e+00 0.0000e+00 1.0000e+00
       -5  1    4    4    0  501 -4.3491740215e-01 -9.3070136539e+00 -5.6396879147e-01 1.0450728066e+01 4.7000000000e+00 0.0000e+00 1.0000e+00
        5  1    4    4  502    0 +1.5022421299e+01 +6.2329972530e+00 -4.6991887236e+01 4.9948482084e+01 4.7000000000e+00 0.0000e+00 -1.0000e+00
       -5  1    4    4    0  502 -6.1881875454e+00 -4.9899202485e+01 +2.8370988506e+01 5.7924321856e+01 4.7000000000e+00 0.0000e+00 -1.0000e+00
</event>
<event>
10      1 +4.6527485e-10 2.40000000e+02 7.81860800e-03 1.03012300e-01
      -11 -1    0    0    0    0 +0.0000000000e+00 +0.0000000000e+00 +1.2000000000e+02 1.2000000000e+02 0.0000000000e+00 0.0000e+00 1.0000e+00
       11 -1    0    0    0    0 -0.0000000000e+00 -0.0000000000e+00 -1.2000000000e+02 1.2000000000e+02 0.0000000000e+00 0.0000e+00 -1.0000e+00
       23  2    1    2    0    0 -1.9978172629e+01 +3.4470439487e+01 +2.8276827483e+01 1.0579310615e+02 9.3836366918e+01 0.0000e+00 0.0000e+00
       25  2    1    2    0    0 +1.9978172629e+01 -3.4470439487e+01 -2.8276827483e+01 1.3420689385e+02 1.2499829120e+02 0.0000e+00 0.0000e+00
      -13  1    3    3    0    0 -5.4438758520e+01 +1.6394048407e+01 +3.4325115943e+01 6.6412023285e+01 0.0000000000e+00 0.0000e+00 1.0000e+00
       13  1    3    3    0    0 +3.4460585890e+01 +1.8076391080e+01 -6.0482884596e+00 3.9381082866e+01 0.0000000000e+00 0.0000e+00 -1.0000e+00
        5  1    4    4  501    0 +1.8471810343e+01 -2.3127855344e+01 +7.8871569236e+00 3.0990364866e+01 4.7000000000e+00 0.0000e+00 -1.0000e+00
       -5  1    4    4    0  501 +3.9174717524e+01 -2.9773677052e+01 -7.3363434334e+00 4.9970413979e+01 4.7000000000e+00 0.0000e+00 -1.0000e+00
        5  1    4    4  502    0 -2.4168757322e+01 +1.1846006276e+01 -2.5033412062e+01 3.7056961756e+01 4.7000000000e+00 0.0000e+00 -1.0000e+00
       -5  1    4    4    0  502 -1.3499597916e+01 +6.5850866329e+00 -3.7942289121e+00 1.6189153248e+01 4.7000000000e+00 0.0000e+00 -1.0000e+00
</event>
<event>
10      1 +4.6527485e-10 2.40000000e+02 7.81860800e-03 1.03012300e-01
      -11 -1    0    0    0    0 +0.0000000000e+00 +0.0000000000e+00 +1.2000000000e+02 1.2000000000e+02 0.0000000000e+00 0.0000e+00 1.0000e+00
       11 -1    0    0    0    0 -0.0000000000e+00 -0.0000000000e+00 -1.2000000000e+02 1.2000000000e+02 0.0000000000e+00 0.0000e+00 -1.0000e+00
       23  2    1    2    0    0 -4.5989428608e+00 +4.1583178392e+01 +2.2924842243e+01 1.0620609345e+02 9.4888750088e+01 0.0000e+00 0.0000e+00
       25  2    1    2    0    0 +4.5989428608e+00 -4.1583178392e+01 -2.2924842243e+01 1.3379390655e+02 1.2499980015e+02 0.0000e+00 0.0000e+00
      -13  1    3    3    0    0 -7.9691792194e+00 +5.2078457815e+01 -2.4079409169e+01 5.7926604698e+01 0.0000000000e+00 0.0000e+00 -1.0000e+00
       13  1    3    3    0    0 +3.3702363586e+00 -1.0495279424e+01 +4.7004251412e+01 4.8279488752e+01 0.0000000000e+00 0.0000e+00 1.0000e+00
        5  1    4    4  501    0 -1.4213391275e+01 -1.7391294460e+01 -3.3207272636e+01 4.0364471636e+01 4.7000000000e+00 0.0000e+00 -1.0000e+00
       -5  1    4    4    0  501 -8.4172141807e+00 -3.4626912483e+01 -2.1388110915e+01 4.1825994922e+01 4.7000000000e+00 0.0000e+00 -1.0000e+00
        5  1    4    4  502    0 +1.9030735212e+00 +8.3628539028e+00 -1.1309250203e+00 9.8452021629e+00 4.7000000000e+00 0.0000e+00 -1.0000e+00
       -5  1    4    4    0  502 +2.5326474795e+01 +2.0721746486e+00 +3.2801466329e+01 4.1758237830e+01 4.7000000000e+00 0.0000e+00 -1.0000e+00
</event>
<event>
10      1 +4.6527485e-10 2.40000000e+02 7.81860800e-03 1.03012300e-01
      -11 -1    0    0    0    0 +0.0000000000e+00 +0.0000000000e+00 +1.2000000000e+02 1.2000000000e+02 0.0000000000e+00 0.0000e+00 -1.0000e+00
       11 -1    0    0    0    0 -0.0000000000e+00 -0.0000000000e+00 -1.2000000000e+02 1.2000000000e+02 0.0000000000e+00 0.0000e+00 1.0000e+00
       23  2    1    2    0    0 +2.9848637601e+01 -4.1272637930e+01 -2.7541893420e+01 1.0223936397e+02 8.4261259441e+01 0.0000e+00 0.0000e+00
       25  2    1    2    0    0 -2.9848637601e+01 +4.1272637930e+01 +2.7541893420e+01 1.3776063603e+02 1.2500026056e+02 0.0000e+00 0.0000e+00
      -13  1    3    3    0    0 +6.6491859829e+00 +1.8884220939e+01 +1.4980269886e+01 2.5004678774e+01 0.0000000000e+00 0.0000e+00 -1.0000e+00
       13  1    3    3    0    0 +2.3199451618e+01 -6.0156858869e+01 -4.2522163306e+01 7.7234685191e+01 0.0000000000e+00 0.0000e+00 1.0000e+00
        5  1    4    4  501    0 +4.8094270296e+00 -3.0269641969e+01 -1.2202992041e+01 3.3322437306e+01 4.7000000000e+00 0.0000e+00 1.0000e+00
       -5  1    4    4    0  501 -1.3273146714e+01 +1.4019217651e+00 +2.0640533915e+01 2.5025256215e+01 4.7000000000e+00 0.0000e+00 1.0000e+00
        5  1    4    4  502    0 +3.5224603090e+00 +1.5184534803e+01 +1.3192661135e+00 1.6334267259e+01 4.7000000000e+00 0.0000e+00 1.0000e+00
       -5  1    4    4    0  502 -2.4907378226e+01 +5.4955823330e+01 +1.7785085432e+01 6.3078675254e+01 4.7000000000e+00 0.0000e+00 1.0000e+00
</event>
<event>
10      1 +4.6527485e-10 2.40000000e+02 7.81860800e-03 1.03012300e-01
      -11 -1    0    0    0    0 +0.0000000000e+00 +0.0000000000e+00 +1.2000000000e+02 1.2000000000e+02 0.0000000000e+00 0.0000e+00 -1.0000e+00
       11 -1    0    0    0    0 -0.0000000000e+00 -0.0000000000e+00 -1.2000000000e+02 1.2000000000e+02 0.0000000000e+00 0.0000e+00 1.0000e+00
       23  2    1    2    0    0 -1.1312670291e+01 +1.4732253796e+00 -4.9725799496e+01 1.0500500168e+02 9.1778256363e+01 0.0000e+00 0.0000e+00
       25  2    1    2    0    0 +1.1312670291e+01 -1.4732253796e+00 +4.9725799496e+01 1.3499499832e+02 1.2498338903e+02 0.0000e+00 0.0000e+00
      -13  1    3    3    0    0 -3.0236006793e+00 +1.2245889921e+00 +2.7320059771e+01 2.7514131736e+01 0.0000000000e+00 0.0000e+00 -1.0000e+00
       13  1    3    3    0    0 -8.2890696121e+00 +2.4863638752e-01 -7.7045859267e+01 7.7490869948e+01 0.0000000000e+00 0.0000e+00 1.0000e+00
        5  1    4    4  501    0 +3.3645941240e+01 +4.9483539404e+00 +6.3293610551e+01 7.2004907508e+01 4.7000000000e+00 0.0000e+00 1.0000e+00
       -5  1    4    4    0  501 +3.9506176736e-01 -1.0941386019e+00 +1.7153064495e+01 1.7823322772e+01 4.7000000000e+00 0.0000e+00 1.0000e+00
        5  1    4    4  502    0 +4.5971308397e-01 +2.8114025026e+00 -1.4088658980e+01 1.5122686005e+01 4.7000000000e+00 0.0000e+00 1.0000e+00
       -5  1    4    4    0  502 -2.3188045800e+01 -8.1388432206e+00 -1.6632216570e+01 3.0044082030e+01 4.7000000000e+00 0.0000e+00 1.0000e+00
</event>
<event>
10      1 +4.6527485e-10 2.40000000e+02 7.81860800e-03 1.03012300e-01
      -11 -1    0    0    0    0 +0.0000000000e+00 +0.0000000000e+00 +1.2000000000e+02 1.2000000000e+02 0.0000000000e+00 0.0000e+00 -1.0000e+00
       11 -1    0    0    0    0 -0.0000000000e+00 -0.0000000000e+00 -1.2000000000e+02 1.2000000000e+02 0.0000000000e+00 0.0000e+00 1.0000e+00
       23  2    1    2    0    0 -3.3293699702e+01 -1.5182195469e+01 +3.6654367084e+01 1.0469458699e+02 9.0985957265e+01 0.0000e+00 0.0000e+00
       25  2    1    2    0    0 +3.3293699702e+01 +1.5182195469e+01 -3.6654367084e+01 1.3530541301e+02 1.2500017066e+02 0.0000e+00 0.0000e+00
      -11  1    3    3    0    0 +1.6917553609e+01 +1.2169381610e+01 +4.2384324963e+01 4.7230588303e+01 0.0000000000e+00 0.0000e+00 -1.0000e+00
       11  1    3    3    0    0 -5.0211253311e+01 -2.7351577079e+01 -5.7299578786e+00 5.7463998686e+01 0.0000000000e+00 0.0000e+00 1.0000e+00
        5  1    4    4  501    0 +2.5570686255e+01 -1.4077979086e+01 +1.7077054489e+00 2.9615127024e+01 4.7000000000e+00 0.0000e+00 1.0000e+00
       -5  1    4    4    0  502 -3.6397361560e+00 +1.7706596285e+01 -1.0099032436e+01 2.1233268411e+01 4.7000000000e+00 0.0000e+00 1.0000e+00
        5  1    4    4  502    0 -2.7231636723e+01 +1.3882644687e+01 -3.2994041880e+01 4.5221528742e+01 4.7000000000e+00 0.0000e+00 1.0000e+00
       -5  1    4    4    0  501 +3.8594386325e+01 -2.3290664165e+00 +4.7310017834e+00 3.9235488834e+01 4.7000000000e+00 0.0000e+00 1.0000e+00
</event>
<event>
10      1 +4.6527485e-10 2.40000000e+02 7.81860800e-03 1.03012300e-01
      -11 -1    0    0    0    0 +0.0000000000e+00 +0.0000000000e+00 +1.2000000000e+02 1.2000000000e+02 0.0000000000e+00 0.0000e+00 1.0000e+00
       11 -1    0    0    0    0 -0.0000000000e+00 -0.0000000000e+00 -1.2000000000e+02 1.2000000000e+02 0.0000000000e+00 0.0000e+00 -1.0000e+00
       23  2    1    2    0    0 -1.4259160049e+01 +3.6810708103e+01 +3.2221960744e+01 1.0501284970e+02 9.1820977837e+01 0.0000e+00 0.0000e+00
       25  2    1    2    0    0 +1.4259160049e+01 -3.6810708103e+01 -3.2221960744e+01 1.3498715030e+02 1.2499969647e+02 0.0000e+00 0.0000e+00
      -11  1    3    3    0    0 -3.2123948903e+01 +4.4958664397e+01 -1.2074237288e+01 5.6559851517e+01 0.0000000000e+00 0.0000e+00 -1.0000e+00
       11  1    3    3    0    0 +1.7864788854e+01 -8.1479562945e+00 +4.4296198032e+01 4.8452998180e+01 0.0000000000e+00 0.0000e+00 1.0000e+00
        5  1    4    4  501    0 +1.0945932400e+01 -9.2145321021e+00 -6.5635528004e+01 6.7341172950e+01 4.7000000000e+00 0.0000e+00 -1.0000e+00
       -5  1    4    4    0  501 -1.3505129577e+00 +1.2866630687e+00 -1.0051163611e+01 1.1251456663e+01 4.7000000000e+00 0.0000e+00 1.0000e+00
        5  1    4    4  502    0 -6.9676955066e+00 -1.2572506925e+01 +1.5287905651e+01 2.1504110544e+01 4.7000000000e+00 0.0000e+00 1.0000e+00
       -5  1    4    4    0  502 +1.1631436114e+01 -1.6310332144e+01 +2.8176825220e+01 3.4890410146e+01 4.7000000000e+00 0.0000e+00 1.0000e+00
</event>
<event>
10      1 +4.6527485e-10 2.40000000e+02 7.81860800e-03 1.03012300e-01
      -11 -1    0    0    0    0 +0.0000000000e+00 +0.0000000000e+00 +1.2000000000e+02 1.2000000000e+02 0.0000000000e+00 0.0000e+00 -1.0000e+00
       11 -1    0    0    0    0 -0.0000000000e+00 -0.0000000000e+00 -1.2000000000e+02 1.2000000000e+02 0.0000000000e+00 0.0000e+00 1.0000e+00
       23  2    1    2    0    0 -2.2463582034e+01 -4.5313484385e+01 +1.0026099261e+01 1.0478430493e+02 9.1221179055e+01 0.0000e+00 0.0000e+00
       25  2    1    2    0    0 +2.2463582034e+01 +4.5313484385e+01 -1.0026099261e+01 1.3521569507e+02 1.2499934857e+02 0.0000e+00 0.0000e+00
      -11  1    3    3    0    0 -1.2700313129e+01 -1.8682181131e+01 +5.0522143393e+01 5.5342649182e+01 0.0000000000e+00 0.0000e+00 -1.0000e+00
       11  1    3    3    0    0 -9.7632689055e+00 -2.6631303253e+01 -4.0496044132e+01 4.9441655748e+01 0.0000000000e+00 0.0000e+00 1.0000e+00
        5  1    4    4  501    0 +1.7406012947e+01 +8.8998726043e+00 -1.9450676132e+01 2.7974914139e+01 4.7000000000e+00 0.0000e+00 1.0000e+00
       -5  1    4    4    0  502 -8.6678848662e+00 +5.3502041187e+00 +7.7439334556e+00 1.3631412896e+01 4.7000000000e+00 0.0000e+00 -1.0000e+00
        5  1    4    4  502    0 +2.3173237413e+00 +2.1155722934e+01 +4.3632079510e+01 4.8772768678e+01 4.7000000000e+00 0.0000e+00 -1.0000e+00
       -5  1    4    4    0  501 +1.1408130212e+01 +9.9076847275e+00 -4.1951436094e+01 4.4836599358e+01 4.7000000000e+00 0.0000e+00 1.0000e+00
</event>
<event>
10      1 +4.6527485e-10 2.40000000e+02 7.81860800e-03 1.03012300e-01
      -11 -1    0    0    0    0 +0.0000000000e+00 +0.0000000000e+00 +1.2000000000e+02 1.2000000000e+02 0.0000000000e+00 0.0000e+00 1.0000e+00
       11 -1    0    0    0    0 -0.0000000000e+00 -0.0000000000e+00 -1.2000000000e+02 1.2000000000e+02 0.0000000000e+00 0.0000e+00 -1.0000e+00
       23  2    1    2    0    0 +4.3947473294e+01 -2.1340833489e+01 -3.1844553142e+01 1.0206607695e+02 8.3765129472e+01 0.0000e+00 0.0000e+00
       25  2    1    2    0    0 -4.3947473294e+01 +2.1340833489e+01 +3.1844553142e+01 1.3793392305e+02 1.2499951992e+02 0.0000e+00 0.0000e+00
      -11  1    3    3    0    0 +7.8750661321e+00 -3.7386072642e+01 +1.4785434517e+01 4.0967599002e+01 0.0000000000e+00 0.0000e+00 -1.0000e+00
       11  1    3    3    0    0 +3.6072407162e+01 +1.6045239153e+01 -4.6629987659e+01 6.1098477944e+01 0.0000000000e+00 0.0000e+00 1.0000e+00
        5  1    4    4  501    0 -1.6761080952e+01 -4.4175704003e+01 +3.0945264708e+01 5.6675621450e+01 4.7000000000e+00 0.0000e+00 1.0000e+00
       -5  1    4    4    0  502 -1.0166554048e+01 +4.0122080785e+01 -8.4515096876e+00 4.2504802125e+01 4.7000000000e+00 0.0000e+00 1.0000e+00
        5  1    4    4  502    0 -1.9516681153e+01 +2.5012995208e+01 +9.3861834852e+00 3.3417678150e+01 4.7000000000e+00 0.0000e+00 1.0000e+00
       -5  1    4    4    0  501 +2.4968428583e+00 +3.8146149910e-01 -3.5385363452e-02 5.3358213293e+00 4.7000000000e+00 0.0000e+00 1.0000e+00
</event>
<event>
10      1 +4.6527485e-10 2.40000000e+02 7.81860800e-03 1.03012300e-01
      -11 -1    0    0    0    0 +0.0000000000e+00 +0.0000000000e+00 +1.2000000000e+02 1.2000000000e+02 0.0000000000e+00 0.0000e+00 1.0000e+00
       11 -1    0    0    0    0 -0.0000000000e+00 -0.0000000000e+00 -1.2000000000e+02 1.2000000000e+02 0.0000000000e+00 0.0000e+00 -1.0000e+00
       23  2    1    2    0    0 -1.7422925645e+01 +4.4452196466e+01 +2.0961902653e+01 1.0456317110e+02 9.0633874902e+01 0.0000e+00 0.0000e+00
       25  2    1    2    0    0 +1.7422925645e+01 -4.4452196466e+01 -2.0961902653e+01 1.3543682890e+02 1.2499670856e+02 0.0000e+00 0.0000e+00
      -11  1    3    3    0    0 +2.5652778880e+01 +3.9580171140e+01 +3.5289222351e+01 5.8906572010e+01 0.0000000000e+00 0.0000e+00 1.0000e+00
       11  1    3    3    0    0 -4.3075704525e+01 +4.8720253258e+00 -1.4327319698e+01 4.5656599094e+01 0.0000000000e+00 0.0000e+00 -1.0000e+00
        5  1    4    4  501    0 +1.3309806753e+01 -7.6458000799e+00 +2.1921672847e+00 1.6202000249e+01 4.7000000000e+00 0.0000e+00 1.0000e+00
       -5  1    4    4    0  502 -2.7795579610e+01 -4.5927233402e+01 -3.2488169720e+01 6.2924368773e+01 4.7000000000e+00 0.0000e+00 1.0000e+00
        5  1    4    4  502    0 -1.3134510865e+00 -5.4328446573e+00 -1.1942575685e+01 1.3998430941e+01 4.7000000000e+00 0.0000e+00 1.0000e+00
       -5  1    4    4    0  501 +3.3222149589e+01 +1.4553681673e+01 +2.1276675467e+01 4.2312028933e+01 4.7000000000e+00 0.0000e+00 1.0000e+00
</event>
<event>
10      1 +4.6527485e-10 2.40000000e+02 7.81860800e-03 1.03012300e-01
      -11 -1    0    0    0    0 +0.0000000000e+00 +0.0000000000e+00 +1.2000000000e+02 1.2000000000e+02 0.0000000000e+00 0.0000e+00 1.0000e+00
       11 -1    0    0    0    0 -0.0000000000e+00 -0.0000000000e+00 -1.2000000000e+02 1.2000000000e+02 0.0000000000e+00 0.0000e+00 -1.0000e+00
       23  2    1    2    0    0 -1.1122058088e+01 +4.7372122314e+01 +1.8426829800e+01 1.0460281627e+02 9.0743500963e+01 0.0000e+00 0.0000e+00
       25  2    1    2    0    0 +1.1122058088e+01 -4.7372122314e+01 -1.8426829800e+01 1.3539718373e+02 1.2500012463e+02 0.0000e+00 0.0000e+00
      -13  1    3    3    0    0 -2.2846430769e+01 +5.6246925394e+01 +4.4086392005e+01 7.5028567727e+01 0.0000000000e+00 0.0000e+00 1.0000e+00
       13  1    3    3    0    0 +1.1724372681e+01 -8.8748030798e+00 -2.5659562205e+01 2.9574248545e+01 0.0000000000e+00 0.0000e+00 -1.0000e+00
        5  1    4    4  501    0 +1.3809244750e+00 -4.0880290823e+01 +3.7135950971e+01 5.5446135886e+01 4.7000000000e+00 0.0000e+00 -1.0000e+00
       -5  1    4    4    0  501 +1.2605697336e+01 -1.6257040893e+01 -5.6343102818e+00 2.1841026447e+01 4.7000000000e+00 0.0000e+00 -1.0000e+00
        5  1    4    4  502    0 +9.7274660072e+00 +9.6303220446e+00 -1.5781820060e+01 2.1413139471e+01 4.7000000000e+00 0.0000e+00 1.0000e+00
       -5  1    4    4    0  502 -1.2592029731e+01 +1.3488735671e-01 -3.4146650430e+01 3.6696881923e+01 4.7000000000e+00 0.0000e+00 1.0000e+00
</event>
<event>
10      1 +4.6527485e-10 2.40000000e+02 7.81860800e-03 1.03012300e-01
      -11 -1    0    0    0    0 +0.0000000000e+00 +0.0000000000e+00 +1.2000000000e+02 1.2000000000e+02 0.0000000000e+00 0.0000e+00 1.0000e+00
       11 -1    0    0    0    0 -0.0000000000e+00 -0.0000000000e+00 -1.2000000000e+02 1.2000000000e+02 0.0000000000e+00 0.0000e+00 -1.0000e+00
       23  2    1    2    0    0 -2.5381249451e+01 +2.9264716256e+00 -4.4368405700e+01 1.0491879980e+02 9.1578529506e+01 0.0000e+00 0.0000e+00
       25  2    1    2    0    0 +2.5381249451e+01 -2.9264716256e+00 +4.4368405700e+01 1.3508120020e+02 1.2500241263e+02 0.0000e+00 0.0000e+00
      -13  1    3    3    0    0 +1.7054635959e+01 +3.5908148252e+01 -9.5599109769e+00 4.0885787463e+01 0.0000000000e+00 0.0000e+00 -1.0000e+00
       13  1    3    3    0    0 -4.2435885410e+01 -3.2981676626e+01 -3.4808494723e+01 6.4033012334e+01 0.0000000000e+00 0.0000e+00 1.0000e+00
        5  1    4    4  501    0 -1.3502092906e+01 -1.9518496500e+01 +3.3751575887e+01 4.1527546199e+01 4.7000000000e+00 0.0000e+00 1.0000e+00
       -5  1    4    4    0  502 -9.5912029858e+00 +2.9063048013e+01 -2.8853673079e+00 3.1097705366e+01 4.7000000000e+00 0.0000e+00 1.0000e+00
        5  1    4    4  502    0 +2.0884640843e+01 +9.2470956270e+00 -2.7497464051e+00 2.3480377040e+01 4.7000000000e+00 0.0000e+00 1.0000e+00
       -5  1    4    4    0  501 +2.7589904501e+01 -2.1718118766e+01 +1.6251943526e+01 3.8975571599e+01 4.7000000000e+00 0.0000e+00 1.0000e+00
</event>
<event>
10      1 +4.6527485e-10 2.40000000e+02 7.81860800e-03 1.03012300e-01
      -11 -1    0    0    0    0 +0.0000000000e+00 +0.0000000000e+00 +1.2000000000e+02 1.2000000000e+02 0.0000000000e+00 0.0000e+00 1.0000e+00
       11 -1    0    0    0    0 -0.0000000000e+00 -0.0000000000e+00 -1.2000000000e+02 1.2000000000e+02 0.0000000000e+00 0.0000e+00 -1.0000e+00
       23  2    1    2    0    0 +2.0007241399e+01 +2.1466986434e+01 +3.9152430222e+01 1.0575958110e+02 9.3760625993e+01 0.0000e+00 0.0000e+00
       25  2    1    2    0    0 -2.0007241399e+01 -2.1466986434e+01 -3.9152430222e+01 1.3424041890e+02 1.2500582410e+02 0.0000e+00 0.0000e+00
      -13  1    3    3    0    0 -6.5152526170e-01 -3.1529785010e+01 +3.7304644457e+01 4.8848626654e+01 0.0000000000e+00 0.0000e+00 1.0000e+00
       13  1    3    3    0    0 +2.0658766661e+01 +5.2996771444e+01 +1.8477857655e+00 5.6910954443e+01 0.0000000000e+00 0.0000e+00 -1.0000e+00
        5  1    4    4  501    0 +2.3643251559e+01 -3.3407561692e+01 -1.2583252642e+01 4.3075477589e+01 4.7000000000e+00 0.0000e+00 -1.0000e+00
       -5  1    4    4    0  501 +6.1033562030e+00 -2.0186730686e+01 -1.8051168083e+01 2.8154745992e+01 4.7000000000e+00 0.0000e+00 -1.0000e+00
        5  1    4    4  502    0 -3.6408072610e+01 +3.1326259445e+01 -6.6909081035e+00 4.8721048155e+01 4.7000000000e+00 0.0000e+00 -1.0000e+00
       -5  1    4    4    0  502 -1.3345776551e+01 +8.0104649897e-01 -1.8271013936e+00 1.4289147166e+01 4.7000000000e+00 0.0000e+00 -1.0000e+00
</event>
<event>
10      1 +4.6527485e-10 2.40000000e+02 7.81860800e-03 1.03012300e-01
      -11 -1    0    0    0    0 +0.0000000000e+00 +0.0000000000e+00 +1.2000000000e+02 1.2000000000e+02 0.0000000000e+00 0.0000e+00 1.0000e+00
       11 -1    0    0    0    0 -0.0000000000e+00 -0.0000000000e+00 -1.2000000000e+02 1.2000000000e+02 0.0000000000e+00 0.0000e+00 -1.0000e+00
       23  2    1    2    0    0 +2.3939083282e+00 +3.8020220606e+01 +3.4525137083e+01 1.0484165543e+02 9.1370233945e+01 0.0000e+00 0.0000e+00
       25  2    1    2    0    0 -2.3939083282e+00 -3.8020220606e+01 -3.4525137083e+01 1.3515834457e+02 1.2499810016e+02 0.0000e+00 0.0000e+00
      -11  1    3    3    0    0 -3.0793710345e+01 -9.9863459659e+00 -7.1188148464e+00 3.3145998663e+01 0.0000000000e+00 0.0000e+00 -1.0000e+00
       11  1    3    3    0    0 +3.3187618673e+01 +4.8006566572e+01 +4.1643951929e+01 7.1695656769e+01 0.0000000000e+00 0.0000e+00 1.0000e+00
        5  1    4    4  501    0 -3.1823992580e+01 -1.0802206205e+01 -2.1045345679e+01 3.9930573967e+01 4.7000000000e+00 0.0000e+00 1.0000e+00
       -5  1    4    4    0  502 +1.1689507514e+01 -8.2842921532e+00 -8.8062245914e+00 1.7461777514e+01 4.7000000000e+00 0.0000e+00 1.0000e+00
        5  1    4    4  502    0 +3.1727403241e+01 -2.2570533646e+01 +2.3524551503e+01 4.5733484766e+01 4.7000000000e+00 0.0000e+00 1.0000e+00
       -5  1    4    4    0  501 -1.3986826503e+01 +3.6368113980e+00 -2.8198118315e+01 3.2032508320e+01 4.7000000000e+00 0.0000e+00 1.0000e+00
</event>
<event>
10      1 +4.6527485e-10 2.40000000e+02 7.81860800e-03 1.03012300e-01
      -11 -1    0    0    0    0 +0.0000000000e+00 +0.0000000000e+00 +1.2000000000e+02 1.2000000000e+02 0.0000000000e+00 0.0000e+00 -1.0000e+00
       11 -1    0    0    0    0 -0.0000000000e+00 -0.0000000000e+00 -1.2000000000e+02 1.2000000000e+02 0.0000000000e+00 0.0000e+00 1.0000e+00
       23  2    1    2    0    0 +1.2634606910e+01 +3.7215720309e+01 -3.2803632681e+01 1.0493095773e+02 9.1595766510e+01 0.0000e+00 0.0000e+00
       25  2    1    2    0    0 -1.2634606910e+01 -3.7215720309e+01 +3.2803632681e+01 1.3506904227e+02 1.2499169866e+02 0.0000e+00 0.0000e+00
      -13  1    3    3    0    0 +1.6799384644e+00 -1.2990020982e-01 -5.8351409724e+01 5.8375731979e+01 0.0000000000e+00 0.0000e+00 1.0000e+00
       13  1    3    3    0    0 +1.0954668445e+01 +3.7345620519e+01 +2.5547777043e+01 4.6555225749e+01 0.0000000000e+00 0.0000e+00 -1.0000e+00
        5  1    4    4  501    0 -1.1063269538e+01 -2.0121130332e+01 +3.2628296368e+01 4.0174015764e+01 4.7000000000e+00 0.0000e+00 -1.0000e+00
       -5  1    4    4    0  502 +1.0028696338e+01 -1.2179621351e+01 -1.1581551777e+01 2.0128096484e+01 4.7000000000e+00 0.0000e+00 -1.0000e+00
        5  1    4    4  502    0 +1.1723221914e+01 -1.0746517810e+00 -2.6600762564e+01 2.9466580689e+01 4.7000000000e+00 0.0000e+00 -1.0000e+00
       -5  1    4    4    0  501 -2.3323255624e+01 -3.8403168450e+00 +3.8357650654e+01 4.5300349337e+01 4.7000000000e+00 0.0000e+00 -1.0000e+00
</event>
<event>
10      1 +4.6527485e-10 2.40000000e+02 7.81860800e-03 1.03012300e-01
      -11 -1    0    0    0    0 +0.0000000000e+00 +0.0000000000e+00 +1.2000000000e+02 1.2000000000e+02 0.0000000000e+00 0.0000e+00 1.0000e+00
       11 -1    0    0    0    0 -0.0000000000e+00 -0.0000000000e+00 -1.2000000000e+02 1.2000000000e+02 0.0000000000e+00 0.0000e+00 -1.0000e+00
       23  2    1    2    0    0 -4.5269057851e+01 -2.7021276023e+01 +7.9051272098e+00 1.0410770265e+02 8.9423071738e+01 0.0000e+00 0.0000e+00
       25  2    1    2    0    0 +4.5269057851e+01 +2.7021276023e+01 -7.9051272098e+00 1.3589229735e+02 1.2499915394e+02 0.0000e+00 0.0000e+00
      -13  1    3    3    0    0 -1.3501556851e+01 -3.7034417888e+01 -3.2963412514e+01 5.1385082566e+01 0.0000000000e+00 0.0000e+00 -1.0000e+00
       13  1    3    3    0    0 -3.1767501000e+01 +1.0013141865e+01 +4.0868539724e+01 5.2722620088e+01 0.0000000000e+00 0.0000e+00 1.0000e+00
        5  1    4    4  501    0 +7.8872832251e+00 +9.0036958484e+00 -4.5929383857e+00 1.3655067141e+01 4.7000000000e+00 0.0000e+00 1.0000e+00
       -5  1    4    4    0  501 -8.8013862520e-01 +5.3603133425e+00 +1.8544089171e+00 7.4186545654e+00 4.7000000000e+00 0.0000e+00 -1.0000e+00
        5  1    4    4  502    0 +4.9584053158e-01 -1.1419068591e+00 +4.7859663394e+01 4.8105999515e+01 4.7000000000e+00 0.0000e+00 -1.0000e+00
       -5  1    4    4    0  502 +3.7766072719e+01 +1.3799173692e+01 -5.3026261136e+01 6.6712576125e+01 4.7000000000e+00 0.0000e+00 1.0000e+00
</event>
<event>
10      1 +4.6527485e-10 2.40000000e+02 7.81860800e-03 1.03012300e-01
      -11 -1    0    0    0    0 +0.0000000000e+00 +0.0000000000e+00 +1.2000000000e+02 1.2000000000e+02 0.0000000000e+00 0.0000e+00 1.0000e+00
       11 -1    0    0    0    0 -0.0000000000e+00 -0.0000000000e+00 -1.2000000000e+02 1.2000000000e+02 0.0000000000e+00 0.0000e+00 -1.0000e+00
       23  2    1    2    0    0 +4.1285848155e+01 -7.7177522709e+00 +2.6675274034e+01 1.0546275358e+02 9.2987833560e+01 0.0000e+00 0.0000e+00
       25  2    1    2    0    0 -4.1285848155e+01 +7.7177522709e+00 -2.6675274034e+01 1.3453724642e+02 1.2499846188e+02 0.0000e+00 0.0000e+00
      -13  1    3    3    0    0 -1.0828543292e+01 -3.8413450203e+01 +1.9915772338e+01 4.4603682518e+01 0.0000000000e+00 0.0000e+00 1.0000e+00
       13  1    3    3    0    0 +5.2114391447e+01 +3.0695697933e+01 +6.7595016961e+00 6.0859071063e+01 0.0000000000e+00 0.0000e+00 -1.0000e+00
        5  1    4    4  501    0 -2.6455539971e+00 +2.1980333702e+00 -3.5236668400e+00 6.8070944350e+00 4.7000000000e+00 0.0000e+00 1.0000e+00
       -5  1    4    4    0  501 -4.2880953025e+00 +6.8865212255e+00 +4.0068542798e+00 1.0195921593e+01 4.7000000000e+00 0.0000e+00 1.0000e+00
        5  1    4    4  502    0 -2.3984351322e+00 +4.5132861254e+01 +1.3989424728e+01 4.7544943583e+01 4.7000000000e+00 0.0000e+00 1.0000e+00
       -5  1    4    4    0  502 -3.1953763723e+01 -4.6499663579e+01 -4.1147886202e+01 6.9989286808e+01 4.7000000000e+00 0.0000e+00 1.0000e+00
</event>
<event>
10      1 +4.6527485e-10 2.40000000e+02 7.81860800e-03 1.03012300e-01
      -11 -1    0    0    0    0 +0.0000000000e+00 +0.0000000000e+00 +1.2000000000e+02 1.2000000000e+02 0.0000000000e+00 0.0000e+00 1.0000e+00
       11 -1    0    0    0    0 -0.0000000000e+00 -0.0000000000e+00 -1.2000000000e+02 1.2000000000e+02 0.0000000000e+00 0.0000e+00 -1.0000e+00
       23  2    1    2    0    0 -6.4556383816e-01 +8.9115618397e+00 +5.3026794126e+01 1.0392365671e+02 8.8929482411e+01 0.0000e+00 0.0000e+00
       25  2    1    2    0    0 +6.4556383816e-01 -8.9115618397e+00 -5.3026794126e+01 1.3607634329e+02 1.2500039048e+02 0.0000e+00 0.0000e+00
      -13  1    3    3    0    0 +3.6645202994e+01 +5.5209896094e+00 +5.5121107683e+01 6.6420544570e+01 0.0000000000e+00 0.0000e+00 1.0000e+00
       13  1    3    3    0    0 -3.7290766833e+01 +3.3905722303e+00 -2.0943135571e+00 3.7503112141e+01 0.0000000000e+00 0.0000e+00 -1.0000e+00
        5  1    4    4  501    0 -3.3052832831e-01 -6.6645792315e-01 -2.3086937247e+00 5.2889962993e+00 4.7000000000e+00 0.0000e+00 1.0000e+00
       -5  1    4    4    0  501 -1.0044507699e+01 +5.0996087764e+01 -3.2112496537e+00 5.2286663944e+01 4.7000000000e+00 0.0000e+00 1.0000e+00
        5  1    4    4  502    0 +4.1005615651e+00 -7.3160291748e+00 -1.0209287356e+01 1.4023495868e+01 4.7000000000e+00 0.0000e+00 1.0000e+00
       -5  1    4    4    0  502 +6.9200382999e+00 -5.1925162505e+01 -3.7297563392e+01 6.4477187177e+01 4.7000000000e+00 0.0000e+00 1.0000e+00
</event>
<event>
10      1 +4.6527485e-10 2.40000000e+02 7.81860800e-03 1.03012300e-01
      -11 -1    0    0    0    0 +0.0000000000e+00 +0.0000000000e+00 +1.2000000000e+02 1.2000000000e+02 0.0000000000e+00 0.0000e+00 1.0000e+00
       11 -1    0    0    0    0 -0.0000000000e+00 -0.0000000000e+00 -1.2000000000e+02 1.2000000000e+02 0.0000000000e+00 0.0000e+00 -1.0000e+00
       23  2    1    2    0    0 -4.9259818878e+01 +1.1752703448e+01 +6.7815332544e+00 1.0496006887e+02 9.1684082969e+01 0.0000e+00 0.0000e+00
       25  2    1    2    0    0 +4.9259818878e+01 -1.1752703448e+01 -6.7815332544e+00 1.3503993113e+02 1.2500055205e+02 0.0000e+00 0.0000e+00
      -13  1    3    3    0    0 +7.1660405645e+00 +3.3731101328e+01 +2.3989275633e+01 4.2007436003e+01 0.0000000000e+00 0.0000e+00 -1.0000e+00
       13  1    3    3    0    0 -5.6425859443e+01 -2.1978397880e+01 -1.7207742379e+01 6.2952632868e+01 0.0000000000e+00 0.0000e+00 1.0000e+00
        5  1    4    4  501    0 +2.6664341813e+01 -1.4333377254e+01 -2.9640822308e+01 4.2627469722e+01 4.7000000000e+00 0.0000e+00 1.0000e+00
       -5  1    4    4    0  502 +1.2280189316e+01 +1.9929637357e+01 +1.2259041354e+01 2.6839664486e+01 4.7000000000e+00 0.0000e+00 1.0000e+00
        5  1    4    4  502    0 -1.9317866506e+01 +9.4421764955e-01 +2.0992039001e+01 2.8927965962e+01 4.7000000000e+00 0.0000e+00 1.0000e+00
       -5  1    4    4    0  501 +2.9633154255e+01 -1.8293181201e+01 -1.0391791301e+01 3.6644830958e+01 4.7000000000e+00 0.0000e+00 1.0000e+00
</event>
<event>
10      1 +4.6527485e-10 2.40000000e+02 7.81860800e-03 1.03012300e-01
      -11 -1    0    0    0    0 +0.0000000000e+00 +0.0000000000e+00 +1.2000000000e+02 1.2000000000e+02 0.0000000000e+00 0.0000e+00 1.0000e+00
       11 -1    0    0    0    0 -0.0000000000e+00 -0.0000000000e+00 -1.2000000000e+02 1.2000000000e+02 0.0000000000e+00 0.0000e+00 -1.0000e+00
       23  2    1    2    0    0 +3.5723498341e+00 +4.4824688283e+01 -2.6495702764e+01 1.0454246280e+02 9.0581951300e+01 0.0000e+00 0.0000e+00
       25  2    1    2    0    0 -3.5723498341e+00 -4.4824688283e+01 +2.6495702764e+01 1.3545753720e+02 1.2499883102e+02 0.0000e+00 0.0000e+00
      -13  1    3    3    0    0 -5.6978706382e+00 +7.1352502048e+01 -2.6821176894e+01 7.6439654685e+01 0.0000000000e+00 0.0000e+00 1.0000e+00
       13  1    3    3    0    0 +9.2702204723e+00 -2.6527813766e+01 +3.2547412989e-01 2.8102808119e+01 0.0000000000e+00 0.0000e+00 -1.0000e+00
        5  1    4    4  501    0 +2.0512162765e+01 -2.5126293944e+01 -1.5608348101e+01 3.6301377372e+01 4.7000000000e+00 0.0000e+00 -1.0000e+00
       -5  1    4    4    0  502 -3.7089705731e+01 +9.7094323793e-01 +3.0759689821e+01 4.8423522382e+01 4.7000000000e+00 0.0000e+00 1.0000e+00
        5  1    4    4  502    0 -1.3335474863e+01 -1.1192254555e+01 +1.3105950159e+01 2.2292540937e+01 4.7000000000e+00 0.0000e+00 1.0000e+00
       -5  1    4    4    0  501 +2.6340667994e+01 -9.4770830220e+00 -1.7615891159e+00 2.8440096505e+01 4.7000000000e+00 0.0000e+00 1.0000e+00
</event>
<event>
10      1 +4.6527485e-10 2.40000000e+02 7.81860800e-03 1.03012300e-01
      -11 -1    0    0    0    0 +0.0000000000e+00 +0.0000000000e+00 +1.2000000000e+02 1.2000000000e+02 0.0000000000e+00 0.0000e+00 -1.0000e+00
       11 -1    0    0    0    0 -0.0000000000e+00 -0.0000000000e+00 -1.2000000000e+02 1.2000000000e+02 0.0000000000e+00 0.0000e+00 1.0000e+00
       23  2    1    2    0    0 +1.9076372392e+01 +2.9760339743e+01 -3.0538018481e+01 1.0655770080e+02 9.5772580741e+01 0.0000e+00 0.0000e+00
       25  2    1    2    0    0 -1.9076372392e+01 -2.9760339743e+01 +3.0538018481e+01 1.3344229920e+02 1.2499876334e+02 0.0000e+00 0.0000e+00
      -13  1    3    3    0    0 -4.6552266737e+00 +3.0707298705e+01 -6.0689792841e+01 6.8175217522e+01 0.0000000000e+00 0.0000e+00 1.0000e+00
       13  1    3    3    0    0 +2.3731599066e+01 -9.4695896171e-01 +3.0151774360e+01 3.8382483277e+01 0.0000000000e+00 0.0000e+00 -1.0000e+00
        5  1    4    4  501    0 +2.7822474359e+00 -3.3954338662e+01 +3.6071021928e+01 4.9838204599e+01 4.7000000000e+00 0.0000e+00 1.0000e+00
       -5  1    4    4    0  502 -2.7042006406e+01 +2.2270001386e+01 -2.3730730284e+01 4.2573003559e+01 4.7000000000e+00 0.0000e+00 1.0000e+00
        5  1    4    4  502    0 -1.0397924704e+01 -3.3603240004e+00 -9.1809210144e-01 1.1930696067e+01 4.7000000000e+00 0.0000e+00 1.0000e+00
       -5  1    4    4    0  501 +1.5581311282e+01 -1.4715678467e+01 +1.9115818939e+01 2.9100394975e+01 4.7000000000e+00 0.0000e+00 1.0000e+00
</event>
<event>
10      1 +4.6527485e-10 2.40000000e+02 7.81860800e-03 1.03012300e-01
      -11 -1    0    0    0    0 +0.0000000000e+00 +0.0000000000e+00 +1.2000000000e+02 1.2000000000e+02 0.0000000000e+00 0.0000e+00 -1.0000e+00
       11 -1    0    0    0    0 -0.0000000000e+00 -0.0000000000e+00 -1.2000000000e+02 1.2000000000e+02 0.0000000000e+00 0.0000e+00 1.0000e+00
       23  2    1    2    0    0 +6.8151348093e+00 -4.2960466629e+00 -5.3185730139e+01 1.0391697490e+02 8.8910706343e+01 0.0000e+00 0.0000e+00
       25  2    1    2    0    0 -6.8151348093e+00 +4.2960466629e+00 +5.3185730139e+01 1.3608302510e+02 1.2499986300e+02 0.0000e+00 0.0000e+00
      -11  1    3    3    0    0 -3.3321229016e+01 -2.6949150113e+01 -2.1159793373e+01 4.7794328644e+01 0.0000000000e+00 0.0000e+00 1.0000e+00
       11  1    3    3    0    0 +4.0136363825e+01 +2.2653103450e+01 -3.2025936766e+01 5.6122646256e+01 0.0000000000e+00 0.0000e+00 -1.0000e+00
        5  1    4    4  501    0 -4.3805901748e+00 -1.0579881581e+01 -6.8362005199e+00 1.4140265277e+01 4.7000000000e+00 0.0000e+00 -1.0000e+00
       -5  1    4    4    0  502 -6.3296182241e+00 -6.7338104642e+00 +7.3765714192e+01 7.4490797153e+01 4.7000000000e+00 0.0000e+00 1.0000e+00
        5  1    4    4  502    0 +7.4788822359e+00 +2.3839298262e+01 -2.4288032159e+01 3.5160266314e+01 4.7000000000e+00 0.0000e+00 1.0000e+00
       -5  1    4    4    0  501 -3.5838086463e+00 -2.2295595538e+00 +1.0544248626e+01 1.2291696356e+01 4.7000000000e+00 0.0000e+00 -1.0000e+00
</event>
<event>
10      1 +4.6527485e-10 2.40000000e+02 7.81860800e-03 1.03012300e-01
      -11 -1    0    0    0    0 +0.0000000000e+00 +0.0000000000e+00 +1.2000000000e+02 1.2000000000e+02 0.0000000000e+00 0.0000e+00 1.0000e+00
       11 -1    0    0    0    0 -0.0000000000e+00 -0.0000000000e+00 -1.2000000000e+02 1.2000000000e+02 0.0000000000e+00 0.0000e+00 -1.0000e+00
       23  2    1    2    0    0 +5.3049340244e+00 +2.4940947338e+01 -2.9740209254e+01 1.0900259108e+02 1.0171967183e+02 0.0000e+00 0.0000e+00
       25  2    1    2    0    0 -5.3049340244e+00 -2.4940947338e+01 +2.9740209254e+01 1.3099740892e+02 1.2500259164e+02 0.0000e+00 0.0000e+00
      -13  1    3    3    0    0 -4.4634193817e+01 -2.5933016815e+00 -2.6302034043e+01 5.1872280325e+01 0.0000000000e+00 0.0000e+00 -1.0000e+00
       13  1    3    3    0    0 +4.9939127841e+01 +2.7534249019e+01 -3.4381752106e+00 5.7130310759e+01 0.0000000000e+00 0.0000e+00 1.0000e+00
        5  1    4    4  501    0 +2.2629704042e+01 -2.2174157429e+01 -3.7370189947e+00 3.2246737412e+01 4.7000000000e+00 0.0000e+00 1.0000e+00
       -5  1    4    4    0  502 -4.0861710242e+01 +7.3254745460e+00 +3.7860241725e+01 5.6381112482e+01 4.7000000000e+00 0.0000e+00 1.0000e+00
        5  1    4    4  502    0 -4.7452144986e+00 +6.0275469664e+00 +1.0485231510e+01 1.3815877203e+01 4.7000000000e+00 0.0000e+00 1.0000e+00
       -5  1    4    4    0  501 +1.7672286674e+01 -1.6119811421e+01 -1.4868244986e+01 2.8553681820e+01 4.7000000000e+00 0.0000e+00 1.0000e+00
</event>
<event>
10      1 +4.6527485e-10 2.40000000e+02 7.81860800e-03 1.03012300e-01
      -11 -1    0    0    0    0 +0.0000000000e+00 +0.0000000000e+00 +1.2000000000e+02 1.2000000000e+02 0.0000000000e+00 0.0000e+00 -1.0000e+00
       11 -1    0    0    0    0 -0.0000000000e+00 -0.0000000000e+00 -1.2000000000e+02 1.2000000000e+02 0.0000000000e+00 0.0000e+00 1.0000e+00
       23  2    1    2    0    0 -1.7004793344e+01 -5.5424278711e+00 +4.6985490239e+01 1.0526298668e+02 9.2481233603e+01 0.0000e+00 0.0000e+00
       25  2    1    2    0    0 +1.7004793344e+01 +5.5424278711e+00 -4.6985490239e+01 1.3473701332e+02 1.2500617969e+02 0.0000e+00 0.0000e+00
      -13  1    3    3    0    0 -3.1259382490e+00 +4.2582231043e+01 +3.0728357454e+01 5.2604656090e+01 0.0000000000e+00 0.0000e+00 -1.0000e+00
       13  1    3    3    0    0 -1.3878855095e+01 -4.8124658914e+01 +1.6257132785e+01 5.2658330592e+01 0.0000000000e+00 0.0000e+00 1.0000e+00
        5  1    4    4  501    0 +2.1430881152e+00 +3.2932359187e+00 +2.3036536197e+00 6.5448490804e+00 4.7000000000e+00 0.0000e+00 1.0000e+00
       -5  1    4    4    0  501 -2.0480566329e+01 +4.9391841706e+01 -9.1205950887e+00 5.4445228249e+01 4.7000000000e+00 0.0000e+00 1.0000e+00
        5  1    4    4  502    0 +5.6082403826e-01 -4.2762667967e+00 -5.2245530866e+00 8.2454191084e+00 4.7000000000e+00 0.0000e+00 -1.0000e+00
       -5  1    4    4    0  502 +3.4781447520e+01 -4.2866382957e+01 -3.4943995683e+01 6.5501516881e+01 4.7000000000e+00 0.0000e+00 1.0000e+00
</event>
<event>
10      1 +4.6527485e-10 2.40000000e+02 7.81860800e-03 1.03012300e-01
      -11 -1    0    0    0    0 +0.0000000000e+00 +0.0000000000e+00 +1.2000000000e+02 1.2000000000e+02 0.0000000000e+00 0.0000e+00 -1.0000e+00
       11 -1    0    0    0    0 -0.0000000000e+00 -0.0000000000e+00 -1.2000000000e+02 1.2000000000e+02 0.0000000000e+00 0.0000e+00 1.0000e+00
       23  2    1    2    0    0 +1.4934668074e+01 -4.2430175832e+01 -3.6335420396e+01 1.0226138928e+02 8.4343137422e+01 0.0000e+00 0.0000e+00
       25  2    1    2    0    0 -1.4934668074e+01 +4.2430175832e+01 +3.6335420396e+01 1.3773861072e+02 1.2501319121e+02 0.0000e+00 0.0000e+00
      -11  1    3    3    0    0 +4.3446699103e+01 -1.4075431697e+01 +3.3142719169e+00 4.5789931631e+01 0.0000000000e+00 0.0000e+00 -1.0000e+00
       11  1    3    3    0    0 -2.8512031029e+01 -2.8354744135e+01 -3.9649692313e+01 5.6471457648e+01 0.0000000000e+00 0.0000e+00 1.0000e+00
        5  1    4    4  501    0 -6.9013446244e+00 -2.2423490852e+00 -2.7584004785e+01 2.8907161864e+01 4.7000000000e+00 0.0000e+00 -1.0000e+00
       -5  1    4    4    0  502 +1.2809239210e-01 +1.5043829102e+01 -1.1312699138e+01 1.9401040269e+01 4.7000000000e+00 0.0000e+00 -1.0000e+00
        5  1    4    4  502    0 -6.3394838235e+00 +1.7006791498e+01 +7.2476872527e+00 2.0100720950e+01 4.7000000000e+00 0.0000e+00 -1.0000e+00
       -5  1    4    4    0  501 -1.8219320186e+00 +1.2621904318e+01 +6.7984437067e+01 6.9329687639e+01 4.7000000000e+00 0.0000e+00 -1.0000e+00
</event>
<event>
10      1 +4.6527485e-10 2.40000000e+02 7.81860800e-03 1.03012300e-01
      -11 -1    0    0    0    0 +0.0000000000e+00 +0.0000000000e+00 +1.2000000000e+02 1.2000000000e+02 0.0000000000e+00 0.0000e+00 1.0000e+00
       11 -1    0    0    0    0 -0.0000000000e+00 -0.0000000000e+00 -1.2000000000e+02 1.2000000000e+02 0.0000000000e+00 0.0000e+00 -1.0000e+00
       23  2    1    2    0    0 -2.6742312004e+00 +1.2143193466e+01 -4.8370948031e+01 1.0539196296e+02 9.2806834781e+01 0.0000e+00 0.0000e+00
       25  2    1    2    0    0 +2.6742312004e+00 -1.2143193466e+01 +4.8370948031e+01 1.3460803704e+02 1.2499986545e+02 0.0000e+00 0.0000e+00
      -11  1    3    3    0    0 +2.7119195713e+01 +2.5624976016e+01 +9.8735535362e+00 3.8595041538e+01 0.0000000000e+00 0.0000e+00 1.0000e+00
       11  1    3    3    0    0 -2.9793426913e+01 -1.3481782550e+01 -5.8244501567e+01 6.6796921417e+01 0.0000000000e+00 0.0000e+00 -1.0000e+00
        5  1    4    4  501    0 -1.3996464892e+01 -1.8961123672e+01 +1.5717018867e+01 2.8714803194e+01 4.7000000000e+00 0.0000e+00 -1.0000e+00
       -5  1    4    4    0  501 -2.8372114453e+01 -2.6345610712e+01 +1.2940773889e+01 4.1092842578e+01 4.7000000000e+00 0.0000e+00 1.0000e+00
        5  1    4    4  502    0 +4.3387173964e+01 +3.4151987133e+01 +2.1463593703e+01 5.9427106141e+01 4.7000000000e+00 0.0000e+00 1.0000e+00
       -5  1    4    4    0  502 +1.6556365821e+00 -9.8844621572e-01 -1.7504384284e+00 5.3732851316e+00 4.7000000000e+00 0.0000e+00 -1.0000e+00
</event>
<event>
10      1 +4.6527485e-10 2.40000000e+02 7.81860800e-03 1.03012300e-01
      -11 -1    0    0    0    0 +0.0000000000e+00 +0.0000000000e+00 +1.2000000000e+02 1.2000000000e+02 0.0000000000e+00 0.0000e+00 -1.0000e+00
       11 -1    0    0    0    0 -0.0000000000e+00 -0.0000000000e+00 -1.2000000000e+02 1.2000000000e+02 0.0000000000e+00 0.0000e+00 1.0000e+00
       23  2    1    2    0    0 -1.0192440232e+01 -4.9470194144e+01 -1.3820083002e+01 1.0447229348e+02 9.0400660752e+01 0.0000e+00 0.0000e+00
       25  2    1    2    0    0 +1.0192440232e+01 +4.9470194144e+01 +1.3820083002e+01 1.3552770652e+02 1.2500231435e+02 0.0000e+00 0.0000e+00
      -11  1    3    3    0    0 -1.8980412605e+01 -3.2156538196e+01 -5.0597577952e+01 6.2884130796e+01 0.0000000000e+00 0.0000e+00 1.0000e+00
       11  1    3    3    0    0 +8.7879723729e+00 -1.7313655948e+01 +3.6777494950e+01 4.1588162685e+01 0.0000000000e+00 0.0000e+00 -1.0000e+00
        5  1    4    4  501    0 +1.0825857063e+00 +3.9709645291e+00 +5.0407849436e+00 8.0274568794e+00 4.7000000000e+00 0.0000e+00 1.0000e+00
       -5  1    4    4    0  502 -2.1456121538e+01 +9.4346869771e+00 -2.6605005377e+01 3.5767230546e+01 4.7000000000e+00 0.0000e+00 -1.0000e+00
        5  1    4    4  502    0 +3.2498729875e+00 +9.7844852264e+00 -2.0863881302e+01 2.3742143302e+01 4.7000000000e+00 0.0000e+00 -1.0000e+00
       -5  1    4    4    0  501 +2.7316103076e+01 +2.6280057412e+01 +5.6248184737e+01 6.7990875793e+01 4.7000000000e+00 0.0000e+00 -1.0000e+00
</event>
<event>
10      1 +4.6527485e-10 2.40000000e+02 7.81860800e-03 1.03012300e-01
      -11 -1    0    0    0    0 +0.0000000000e+00 +0.0000000000e+00 +1.2000000000e+02 1.2000000000e+02 0.0000000000e+00 0.0000e+00 1.0000e+00
       11 -1    0    0    0    0 -0.0000000000e+00 -0.0000000000e+00 -1.2000000000e+02 1.2000000000e+02 0.0000000000e+00 0.0000e+00 -1.0000e+00
       23  2    1    2    0    0 -1.1987194511e+00 +2.7067225483e+01 -4.6535265295e+01 1.0387823169e+02 8.8831776295e+01 0.0000e+00 0.0000e+00
       25  2    1    2    0    0 +1.1987194511e+00 -2.7067225483e+01 +4.6535265295e+01 1.3612176831e+02 1.2501813176e+02 0.0000e+00 0.0000e+00
      -11  1    3    3    0    0 +3.5332297979e+01 -8.6238167913e+00 -2.5206108740e+00 3.6456754870e+01 0.0000000000e+00 0.0000e+00 -1.0000e+00
       11  1    3    3    0    0 -3.6531017430e+01 +3.5691042274e+01 -4.4014654421e+01 6.7421476822e+01 0.0000000000e+00 0.0000e+00 1.0000e+00
        5  1    4    4  501    0 +1.5264829683e+01 -2.9857714259e+01 +3.1844555603e+01 4.6482941468e+01 4.7000000000e+00 0.0000e+00 1.0000e+00
       -5  1    4    4    0  502 -1.3063568273e+01 +1.6583031247e-01 -4.8453798970e-01 1.3892771242e+01 4.7000000000e+00 0.0000e+00 -1.0000e+00
        5  1    4    4  502    0 -1.6918074711e+01 +3.4156006049e+01 +1.0457914390e+01 3.9803416619e+01 4.7000000000e+00 0.0000e+00 -1.0000e+00
       -5  1    4    4    0  501 +1.5915532753e+01 -3.1531347585e+01 +4.7173332922e+00 3.5942638978e+01 4.7000000000e+00 0.0000e+00 1.0000e+00
</event>
<event>
10      1 +4.6527485e-10 2.40000000e+02 7.81860800e-03 1.03012300e-01
      -11 -1    0    0    0    0 +0.0000000000e+00 +0.0000000000e+00 +1.2000000000e+02 1.2000000000e+02 0.0000000000e+00 0.0000e+00 -1.0000e+00
       11 -1    0    0    0    0 -0.0000000000e+00 -0.0000000000e+00 -1.2000000000e+02 1.2000000000e+02 0.0000000000e+00 0.0000e+00 1.0000e+00
       23  2    1    2    0    0 +2.8670771834e+01 -2.4040081876e+01 +3.5461082154e+01 1.0478920817e+02 9.1232401628e+01 0.0000e+00 0.0000e+00
       25  2    1    2    0    0 -2.8670771834e+01 +2.4040081876e+01 -3.5461082154e+01 1.3521079183e+02 1.2499812473e+02 0.0000e+00 0.0000e+00
      -13  1    3    3    0    0 +3.3397090288e+01 +1.1647435514e+01 -1.8504830506e+01 3.9918130540e+01 0.0000000000e+00 0.0000e+00 1.0000e+00
       13  1    3    3    0    0 -4.7263184539e+00 -3.5687517390e+01 +5.3965912659e+01 6.4871077629e+01 0.0000000000e+00 0.0000e+00 -1.0000e+00
        5  1    4    4  501    0 -2.7935060246e+01 +1.9686854890e+01 -4.5274497095e+00 3.4792637831e+01 4.7000000000e+00 0.0000e+00 -1.0000e+00
       -5  1    4    4    0  502 +1.6095440763e+01 -7.6275239354e+00 +1.3692905639e+01 2.2952734033e+01 4.7000000000e+00 0.0000e+00 -1.0000e+00
        5  1    4    4  502    0 +3.1460988061e+00 +5.9529249290e+00 +1.3347694241e+01 1.5671189950e+01 4.7000000000e+00 0.0000e+00 -1.0000e+00
       -5  1    4    4    0  501 -1.9977251157e+01 +6.0278259919e+00 -5.7974232324e+01 6.1794230018e+01 4.7000000000e+00 0.0000e+00 -1.0000e+00
</event>
<event>
10      1 +4.6527485e-10 2.40000000e+02 7.81860800e-03 1.03012300e-01
      -11 -1    0    0    0    0 +0.0000000000e+00 +0.0000000000e+00 +1.2000000000e+02 1.2000000000e+02 0.0000000000e+00 0.0000e+00 -1.0000e+00
       11 -1    0    0    0    0 -0.0000000000e+00 -0.0000000000e+00 -1.2000000000e+02 1.2000000000e+02 0.0000000000e+00 0.0000e+00 1.0000e+00
       23  2    1    2    0    0 -1.3821049018e+01 +4.4803783545e+01 +1.5078457744e+01 1.0564682833e+02 9.3463854145e+01 0.0000e+00 0.0000e+00
       25  2    1    2    0    0 +1.3821049018e+01 -4.4803783545e+01 -1.5078457744e+01 1.3435317167e+02 1.2500005774e+02 0.0000e+00 0.0000e+00
      -13  1    3    3    0    0 +3.5601638924e+01 +1.4766860913e+01 -1.3882290072e+01 4.0966508919e+01 0.0000000000e+00 0.0000e+00 -1.0000e+00
       13  1    3    3    0    0 -4.9422687942e+01 +3.0036922633e+01 +2.8960747816e+01 6.4680319408e+01 0.0000000000e+00 0.0000e+00 1.0000e+00
        5  1    4    4  501    0 -3.5776375949e+01 -1.4754955680e+01 +1.2333998677e+01 4.0888571955e+01 4.7000000000e+00 0.0000e+00 -1.0000e+00
       -5  1    4    4    0  501 -1.4246639080e+01 +4.3028964499e-01 -4.4579218623e+00 1.5656147086e+01 4.7000000000e+00 0.0000e+00 -1.0000e+00
        5  1    4    4  502    0 +4.6442960067e+01 -2.7136054593e+01 -8.9320776293e+00 5.4728292587e+01 4.7000000000e+00 0.0000e+00 -1.0000e+00
       -5  1    4    4    0  502 +1.7401103980e+01 -3.3430629177e+00 -1.4022456929e+01 2.3080160045e+01 4.7000000000e+00 0.0000e+00 -1.0000e+00
</event>
<event>
10      1 +4.6527485e-10 2.40000000e+02 7.81860800e-03 1.03012300e-01
      -11 -1    0    0    0    0 +0.0000000000e+00 +0.0000000000e+00 +1.2000000000e+02 1.2000000000e+02 0.0000000000e+00 0.0000e+00 1.0000e+00
       11 -1    0    0    0    0 -0.0000000000e+00 -0.0000000000e+00 -1.2000000000e+02 1.2000000000e+02 0.0000000000e+00 0.0000e+00 -1.0000e+00
       23  2    1    2    0    0 -4.0417205565e+01 -3.3583059976e+01 -2.6687404745e+00 1.0437635736e+02 9.0143936999e+01 0.0000e+00 0.0000e+00
       25  2    1    2    0    0 +4.0417205565e+01 +3.3583059976e+01 +2.6687404745e+00 1.3562364264e+02 1.2500111137e+02 0.0000e+00 0.0000e+00
      -11  1    3    3    0    0 -1.3734308875e+01 +8.1022470575e+00 +3.7425021743e+01 4.0680583822e+01 0.0000000000e+00 0.0000e+00 1.0000e+00
       11  1    3    3    0    0 -2.6682896689e+01 -4.1685307034e+01 -4.0093762217e+01 6.3695773541e+01 0.0000000000e+00 0.0000e+00 -1.0000e+00
        5  1    4    4  501    0 +3.8739537495e+01 -1.1925791362e+01 -3.4511621953e+01 5.3442663806e+01 4.7000000000e+00 0.0000e+00 1.0000e+00
       -5  1    4    4    0  501 +1.5385497869e+01 +9.1796460471e-01 -3.8663822906e+00 1.6570911734e+01 4.7000000000e+00 0.0000e+00 1.0000e+00
        5  1    4    4  502    0 -4.6947279743e-01 +7.9370079648e+00 +6.1314887259e-01 9.2564816037e+00 4.7000000000e+00 0.0000e+00 1.0000e+00
       -5  1    4    4    0  502 -1.3238357002e+01 +3.6653878769e+01 +4.0433595845e+01 5.6353585493e+01 4.7000000000e+00 0.0000e+00 1.0000e+00
</event>
<event>
10      1 +4.6527485e-10 2.40000000e+02 7.81860800e-03 1.03012300e-01
      -11 -1    0    0    0    0 +0.0000000000e+00 +0.0000000000e+00 +1.2000000000e+02 1.2000000000e+02 0.0000000000e+00 0.0000e+00 -1.0000e+00
       11 -1    0    0    0    0 -0.0000000000e+00 -0.0000000000e+00 -1.2000000000e+02 1.2000000000e+02 0.0000000000e+00 0.0000e+00 1.0000e+00
       23  2    1    2    0    0 -4.2769172396e+01 -1.3104491969e+01 -2.6535292200e+01 1.0461117218e+02 9.0765884531e+01 0.0000e+00 0.0000e+00
       25  2    1    2    0    0 +4.2769172396e+01 +1.3104491969e+01 +2.6535292200e+01 1.3538882782e+02 1.2500033260e+02 0.0000e+00 0.0000e+00
      -13  1    3    3    0    0 +1.3825716977e+01 -2.5783337980e+01 +1.5380004827e+01 3.3052617382e+01 0.0000000000e+00 0.0000e+00 -1.0000e+00
       13  1    3    3    0    0 -5.6594889373e+01 +1.2678846011e+01 -4.1915297027e+01 7.1558554794e+01 0.0000000000e+00 0.0000e+00 1.0000e+00
        5  1    4    4  501    0 +3.9874789789e+00 +3.0158978816e+01 +4.3610216116e+01 5.3379817736e+01 4.7000000000e+00 0.0000e+00 -1.0000e+00
       -5  1    4    4    0  502 +2.7706501471e+00 -3.8238614689e+00 +4.1255709247e-01 6.6752245000e+00 4.7000000000e+00 0.0000e+00 -1.0000e+00
        5  1    4    4  502    0 +4.2674498381e+01 -2.6587717461e+01 -2.6752688957e+01 5.7147317507e+01 4.7000000000e+00 0.0000e+00 1.0000e+00
       -5  1    4    4    0  501 -6.6634551110e+00 +1.3357092083e+01 +9.2652079481e+00 1.8186468081e+01 4.7000000000e+00 0.0000e+00 -1.0000e+00
</event>
<event>
10      1 +4.6527485e-10 2.40000000e+02 7.81860800e-03 1.03012300e-01
      -11 -1    0    0    0    0 +0.0000000000e+00 +0.0000000000e+00 +1.2000000000e+02 1.2000000000e+02 0.0000000000e+00 0.0000e+00 -1.0000e+00
       11 -1    0    0    0    0 -0.0000000000e+00 -0.0000000000e+00 -1.2000000000e+02 1.2000000000e+02 0.0000000000e+00 0.0000e+00 1.0000e+00
       23  2    1    2    0    0 -2.8980235179e+01 -2.9556308549e+01 +2.5233362227e+01 1.0592896709e+02 9.4184893123e+01 0.0000e+00 0.0000e+00
       25  2    1    2    0    0 +2.8980235179e+01 +2.9556308549e+01 -2.5233362227e+01 1.3407103291e+02 1.2499955956e+02 0.0000e+00 0.0000e+00
      -13  1    3    3    0    0 +9.0664917139e+00 +1.5951761905e+01 -2.3038427553e+01 2.9452149735e+01 0.0000000000e+00 0.0000e+00 1.0000e+00
       13  1    3    3    0    0 -3.8046726893e+01 -4.5508070453e+01 +4.8271789781e+01 7.6476817352e+01 0.0000000000e+00 0.0000e+00 -1.0000e+00
        5  1    4    4  501    0 +6.2153415208e+01 +5.0834751640e+01 -2.3650727478e+01 8.3837139184e+01 4.7000000000e+00 0.0000e+00 -1.0000e+00
       -5  1    4    4    0  501 -9.5399944357e+00 -1.9570404620e+01 +2.3580282397e+00 2.2397824180e+01 4.7000000000e+00 0.0000e+00 1.0000e+00
        5  1    4    4  502    0 -2.1483267531e+01 -2.7884259492e+00 -2.1995361326e+00 2.2276311685e+01 4.7000000000e+00 0.0000e+00 1.0000e+00
       -5  1    4    4    0  502 -2.1499180621e+00 +1.0803874774e+00 -1.7411268570e+00 5.5597578641e+00 4.7000000000e+00 0.0000e+00 -1.0000e+00
</event>
<event>
10      1 +4.6527485e-10 2.40000000e+02 7.81860800e-03 1.03012300e-01
      -11 -1    0    0    0    0 +0.0000000000e+00 +0.0000000000e+00 +1.2000000000e+02 1.2000000000e+02 0.0000000000e+00 0.0000e+00 -1.0000e+00
       11 -1    0    0    0    0 -0.0000000000e+00 -0.0000000000e+00 -1.2000000000e+02 1.2000000000e+02 0.0000000000e+00 0.0000e+00 1.0000e+00
       23  2    1    2    0    0 +4.1555977718e+01 +1.2768217355e+01 +3.1591339590e+01 1.0393951528e+02 8.8969002702e+01 0.0000e+00 0.0000e+00
       25  2    1    2    0    0 -4.1555977718e+01 -1.2768217355e+01 -3.1591339590e+01 1.3606048472e+02 1.2499806441e+02 0.0000e+00 0.0000e+00
      -11  1    3    3    0    0 +1.8486251959e+01 -2.5795965479e+00 -3.0606391675e+01 3.5848947561e+01 0.0000000000e+00 0.0000e+00 1.0000e+00
       11  1    3    3    0    0 +2.3069725759e+01 +1.5347813903e+01 +6.2197731265e+01 6.8090567722e+01 0.0000000000e+00 0.0000e+00 -1.0000e+00
        5  1    4    4  501    0 -2.8466163251e+01 -2.9647359489e+01 -8.9058416628e+00 4.2316573475e+01 4.7000000000e+00 0.0000e+00 1.0000e+00
       -5  1    4    4    0  501 -1.0252707819e+01 -3.4435841291e+01 -1.6758605871e+01 3.9923502524e+01 4.7000000000e+00 0.0000e+00 1.0000e+00
        5  1    4    4  502    0 +2.1757903135e-01 +2.9100846024e+01 +2.0776560621e+00 2.9551873624e+01 4.7000000000e+00 0.0000e+00 -1.0000e+00
       -5  1    4    4    0  502 -3.0546856791e+00 +2.2214137400e+01 -8.0045481182e+00 2.4268535094e+01 4.7000000000e+00 0.0000e+00 -1.0000e+00
</event>
<event>
10      1 +4.6527485e-10 2.40000000e+02 7.81860800e-03 1.03012300e-01
      -11 -1    0    0    0    0 +0.0000000000e+00 +0.0000000000e+00 +1.2000000000e+02 1.2000000000e+02 0.0000000000e+00 0.0000e+00 1.0000e+00
       11 -1    0    0    0    0 -0.0000000000e+00 -0.0000000000e+00 -1.2000000000e+02 1.2000000000e+02 0.0000000000e+00 0.0000e+00 -1.0000e+00
       23  2    1    2    0    0 +5.2155023655e+00 +4.7471651429e+01 +1.9071171539e+01 1.0483545250e+02 9.1356463164e+01 0.0000e+00 0.0000e+00
       25  2    1    2    0    0 -5.2155023655e+00 -4.7471651429e+01 -1.9071171539e+01 1.3516454750e+02 1.2499994465e+02 0.0000e+00 0.0000e+00
      -11  1    3    3    0    0 -1.1870748176e+01 +2.3194400553e+01 +5.3419861372e+01 5.9435481560e+01 0.0000000000e+00 0.0000e+00 1.0000e+00
       11  1    3    3    0    0 +1.7086250542e+01 +2.4277250876e+01 -3.4348689834e+01 4.5399970936e+01 0.0000000000e+00 0.0000e+00 -1.0000e+00
        5  1    4    4  501    0 +1.5301292577e+01 +2.5567946537e+01 -1.6031007426e+01 3.4160395837e+01 4.7000000000e+00 0.0000e+00 -1.0000e+00
       -5  1    4    4    0  502 +3.5052429944e+00 -1.6956010126e+01 +4.7388371908e+00 1.8556389352e+01 4.7000000000e+00 0.0000e+00 1.0000e+00
        5  1    4    4  502    0 -1.7661540945e+01 -6.6217096512e+01 -3.0817107127e+00 6.8762059597e+01 4.7000000000e+00 0.0000e+00 1.0000e+00
       -5  1    4    4    0  501 -6.3604969915e+00 +1.0133508673e+01 -4.6972905906e+00 1.3685702718e+01 4.7000000000e+00 0.0000e+00 -1.0000e+00
</event>
<event>
10      1 +4.6527485e-10 2.40000000e+02 7.81860800e-03 1.03012300e-01
      -11 -1    0    0    0    0 +0.0000000000e+00 +0.0000000000e+00 +1.2000000000e+02 1.2000000000e+02 0.0000000000e+00 0.0000e+00 -1.0000e+00
       11 -1    0    0    0    0 -0.0000000000e+00 -0.0000000000e+00 -1.2000000000e+02 1.2000000000e+02 0.0000000000e+00 0.0000e+00 1.0000e+00
       23  2    1    2    0    0 +1.6087149115e+01 -2.7992612643e+01 +4.0486899729e+01 1.0469625833e+02 9.0993047703e+01 0.0000e+00 0.0000e+00
       25  2    1    2    0    0 -1.6087149115e+01 +2.7992612643e+01 -4.0486899729e+01 1.3530374167e+02 1.2500212290e+02 0.0000e+00 0.0000e+00
      -13  1    3    3    0    0 +3.5659309742e+00 +2.0777599533e+01 -1.7858005985e+01 2.7628479579e+01 0.0000000000e+00 0.0000e+00 1.0000e+00
       13  1    3    3    0    0 +1.2521218141e+01 -4.8770212176e+01 +5.8344905714e+01 7.7067778755e+01 0.0000000000e+00 0.0000e+00 -1.0000e+00
        5  1    4    4  501    0 -2.8232365809e+01 +6.5632299586e+00 -1.6225281360e+01 3.3548356471e+01 4.7000000000e+00 0.0000e+00 -1.0000e+00
       -5  1    4    4    0  502 +4.0024503211e+00 +1.3644254534e+00 -4.5159408341e+00 7.7694907818e+00 4.7000000000e+00 0.0000e+00 1.0000e+00
        5  1    4    4  502    0 +4.4431745222e+01 -8.4457314779e+00 -8.5839891612e+00 4.6274023313e+01 4.7000000000e+00 0.0000e+00 1.0000e+00
       -5  1    4    4    0  501 -3.6288978849e+01 +2.8510688709e+01 -1.1161688373e+01 4.7711871101e+01 4.7000000000e+00 0.0000e+00 -1.0000e+00
</event>
<event>
10      1 +4.6527485e-10 2.40000000e+02 7.81860800e-03 1.03012300e-01
      -11 -1    0    0    0    0 +0.0000000000e+00 +0.0000000000e+00 +1.2000000000e+02 1.2000000000e+02 0.0000000000e+00 0.0000e+00 1.0000e+00
       11 -1    0    0    0    0 -0.0000000000e+00 -0.0000000000e+00 -1.2000000000e+02 1.2000000000e+02 0.0000000000e+00 0.0000e+00 -1.0000e+00
       23  2    1    2    0    0 -2.0421371579e+00 +2.9768757685e+01 +4.1324967594e+01 1.0500518212e+02 9.1804063458e+01 0.0000e+00 0.0000e+00
       25  2    1    2    0    0 +2.0421371579e+00 -2.9768757685e+01 -4.1324967594e+01 1.3499481788e+02 1.2500199458e+02 0.0000e+00 0.0000e+00
      -13  1    3    3    0    0 -3.8764752218e+01 -6.7466863227e+00 +9.8403311577e-01 3.9359777846e+01 0.0000000000e+00 0.0000e+00 -1.0000e+00
       13  1    3    3    0    0 +3.6722615060e+01 +3.6515444008e+01 +4.0340934478e+01 6.5645404276e+01 0.0000000000e+00 0.0000e+00 1.0000e+00
        5  1    4    4  501    0 +2.6326989432e+01 -2.1532182478e+01 +5.2955779644e+00 3.4740155452e+01 4.7000000000e+00 0.0000e+00 1.0000e+00
       -5  1    4    4    0  501 +7.6924003896e+00 -2.3555146204e+01 +1.2853880010e+01 2.8307775747e+01 4.7000000000e+00 0.0000e+00 1.0000e+00
        5  1    4    4  502    0 -9.3825778347e+00 -2.5608180053e+00 -1.1417933377e+01 1.5717816588e+01 4.7000000000e+00 0.0000e+00 1.0000e+00
       -5  1    4    4    0  502 -2.2594674829e+01 +1.7879389002e+01 -4.8056492191e+01 5.6229070092e+01 4.7000000000e+00 0.0000e+00 1.0000e+00
</event>
<event>
10      1 +4.6527485e-10 2.40000000e+02 7.81860800e-03 1.03012300e-01
      -11 -1    0    0    0    0 +0.0000000000e+00 +0.0000000000e+00 +1.2000000000e+02 1.2000000000e+02 0.0000000000e+00 0.0000e+00 1.0000e+00
       11 -1    0    0    0    0 -0.0000000000e+00 -0.0000000000e+00 -1.2000000000e+02 1.2000000000e+02 0.0000000000e+00 0.0000e+00 -1.0000e+00
       23  2    1    2    0    0 -9.3383376863e+00 +5.2607416793e+01 +3.1921305117e+00 1.0402249596e+02 8.9194983694e+01 0.0000e+00 0.0000e+00
       25  2    1    2    0    0 +9.3383376863e+00 -5.2607416793e+01 -3.1921305117e+00 1.3597750404e+02 1.2499978822e+02 0.0000e+00 0.0000e+00
      -11  1    3    3    0    0 -1.0919844339e+01 -2.1450306990e+01 -1.4182557723e+01 2.7937494768e+01 0.0000000000e+00 0.0000e+00 -1.0000e+00
       11  1    3    3    0    0 +1.5815066525e+00 +7.4057723783e+01 +1.7374688234e+01 7.6085001192e+01 0.0000000000e+00 0.0000e+00 1.0000e+00
        5  1    4    4  501    0 -8.4066660318e+00 -3.4903345063e+01 +2.3966840890e+01 4.3421365623e+01 4.7000000000e+00 0.0000e+00 1.0000e+00
       -5  1    4    4    0  502 +6.2851271630e+00 +2.2281974784e+00 -7.9608310767e-01 8.1970382317e+00 4.7000000000e+00 0.0000e+00 -1.0000e+00
        5  1    4    4  502    0 +2.3495201851e+01 +1.8383262319e+01 -3.1453165289e+01 4.3604592077e+01 4.7000000000e+00 0.0000e+00 -1.0000e+00
       -5  1    4    4    0  501 -1.2035325296e+01 -3.8315531528e+01 +5.0902769943e+00 4.0754508108e+01 4.7000000000e+00 0.0000e+00 1.0000e+00
</event>
<event>
10      1 +4.6527485e-10 2.40000000e+02 7.81860800e-03 1.03012300e-01
      -11 -1    0    0    0    0 +0.0000000000e+00 +0.0000000000e+00 +1.2000000000e+02 1.2000000000e+02 0.0000000000e+00 0.0000e+00 -1.0000e+00
       11 -1    0    0    0    0 -0.0000000000e+00 -0.0000000000e+00 -1.2000000000e+02 1.2000000000e+02 0.0000000000e+00 0.0000e+00 1.0000e+00
       23  2    1    2    0    0 -3.8707184911e+01 +9.8105672383e+00 -2.4574234167e+01 1.0649555468e+02 9.5618600645e+01 0.0000e+00 0.0000e+00
       25  2    1    2    0    0 +3.8707184911e+01 -9.8105672383e+00 +2.4574234167e+01 1.3350444532e+02 1.2500020216e+02 0.0000e+00 0.0000e+00
      -11  1    3    3    0    0 +2.4930061396e+01 +2.7923775060e+01 -7.7934272770e+00 3.8235882146e+01 0.0000000000e+00 0.0000e+00 1.0000e+00
       11  1    3    3    0    0 -6.3637246307e+01 -1.8113207822e+01 -1.6780806890e+01 6.8259672538e+01 0.0000000000e+00 0.0000e+00 -1.0000e+00
        5  1    4    4  501    0 -1.2394206640e+01 +1.7258462851e+01 -1.1225456928e+01 2.4486154893e+01 4.7000000000e+00 0.0000e+00 1.0000e+00
       -5  1    4    4    0  502 +6.6497606931e+01 -2.9904711798e+01 +3.9037451210e+01 8.2838614862e+01 4.7000000000e+00 0.0000e+00 1.0000e+00
        5  1    4    4  502    0 -1.9560401087e+00 +2.6291206199e+00 +6.6994390003e+00 8.8153758320e+00 4.7000000000e+00 0.0000e+00 -1.0000e+00
       -5  1    4    4    0  501 -1.3440175272e+01 +2.0656108878e-01 -9.9371991155e+00 1.7364299729e+01 4.7000000000e+00 0.0000e+00 1.0000e+00
</event>
<event>
10      1 +4.6527485e-10 2.40000000e+02 7.81860800e-03 1.03012300e-01
      -11 -1    0    0    0    0 +0.0000000000e+00 +0.0000000000e+00 +1.2000000000e+02 1.2000000000e+02 0.0000000000e+00 0.0000e+00 -1.0000e+00
       11 -1    0    0    0    0 -0.0000000000e+00 -0.0000000000e+00 -1.2000000000e+02 1.2000000000e+02 0.0000000000e+00 0.0000e+00 1.0000e+00
       23  2    1    2    0    0 -2.4400477791e+01 +4.5185192225e+01 +5.7320590182e+00 1.0473959053e+02 9.1106752834e+01 0.0000e+00 0.0000e+00
       25  2    1    2    0    0 +2.4400477791e+01 -4.5185192225e+01 -5.7320590182e+00 1.3526040947e+02 1.2500174781e+02 0.0000e+00 0.0000e+00
      -11  1    3    3    0    0 -2.1559582413e+01 +4.9483232061e+01 -3.4577865975e+01 6.4101752428e+01 0.0000000000e+00 0.0000e+00 1.0000e+00
       11  1    3    3    0    0 -2.8408953775e+00 -4.2980398356e+00 +4.0309924993e+01 4.0637838106e+01 0.0000000000e+00 0.0000e+00 -1.0000e+00
        5  1    4    4  501    0 -3.5462313540e-02 -5.7789408442e+01 +1.0537188049e+01 5.8929952636e+01 4.7000000000e+00 0.0000e+00 1.0000e+00
       -5  1    4    4    0  502 +3.3650965018e+01 -1.1790355034e+01 -1.1455195044e+01 3.7745349541e+01 4.7000000000e+00 0.0000e+00 1.0000e+00
        5  1    4    4  502    0 -5.4748667049e+00 +2.8838171907e+01 -7.4771927628e+00 3.0653103203e+01 4.7000000000e+00 0.0000e+00 1.0000e+00
       -5  1    4    4    0  501 -3.7401582092e+00 -4.4436006557e+00 +2.6631407396e+00 7.9320040857e+00 4.7000000000e+00 0.0000e+00 1.0000e+00
</event>
<event>
10      1 +4.6527485e-10 2.40000000e+02 7.81860800e-03 1.03012300e-01
      -11 -1    0    0    0    0 +0.0000000000e+00 +0.0000000000e+00 +1.2000000000e+02 1.2000000000e+02 0.0000000000e+00 0.0000e+00 1.0000e+00
       11 -1    0    0    0    0 -0.0000000000e+00 -0.0000000000e+00 -1.2000000000e+02 1.2000000000e+02 0.0000000000e+00 0.0000e+00 -1.0000e+00
       23  2    1    2    0    0 +6.1527169983e+00 -1.7922865434e+01 +4.6239976613e+01 1.0537935373e+02 9.2777086202e+01 0.0000e+00 0.0000e+00
       25  2    1    2    0    0 -6.1527169983e+00 +1.7922865434e+01 -4.6239976613e+01 1.3462064627e+02 1.2500199171e+02 0.0000e+00 0.0000e+00
      -11  1    3    3    0    0 -2.2108640374e+01 +2.3318174943e+01 +4.5093354202e+01 5.5370929693e+01 0.0000000000e+00 0.0000e+00 1.0000e+00
       11  1    3    3    0    0 +2.8261357372e+01 -4.1241040378e+01 +1.1466224107e+00 5.0008424039e+01 0.0000000000e+00 0.0000e+00 -1.0000e+00
        5  1    4    4  501    0 -5.2130361332e+00 -1.0446662993e+01 -2.3090332190e+00 1.2795708180e+01 4.7000000000e+00 0.0000e+00 1.0000e+00
       -5  1    4    4    0  501 -3.7117161299e+01 -2.0447631224e+01 -3.8654496879e+01 5.7550407597e+01 4.7000000000e+00 0.0000e+00 -1.0000e+00
        5  1    4    4  502    0 +1.1559508142e+01 +1.4706012860e+01 +6.4756462311e+00 2.0344852834e+01 4.7000000000e+00 0.0000e+00 -1.0000e+00
       -5  1    4    4    0  502 +2.4617972292e+01 +3.4111146791e+01 -1.1752092746e+01 4.3929677657e+01 4.7000000000e+00 0.0000e+00 -1.0000e+00
</event>
<event>
10      1 +4.6527485e-10 2.40000000e+02 7.81860800e-03 1.03012300e-01
      -11 -1    0    0    0    0 +0.0000000000e+00 +0.0000000000e+00 +1.2000000000e+02 1.2000000000e+02 0.0000000000e+00 0.0000e+00 -1.0000e+00
       11 -1    0    0    0    0 -0.0000000000e+00 -0.0000000000e+00 -1.2000000000e+02 1.2000000000e+02 0.0000000000e+00 0.0000e+00 1.0000e+00
       23  2    1    2    0    0 +3.5361146513e+01 -3.4208419896e+01 +1.0308531066e+01 1.0527128487e+02 9.2494058898e+01 0.0000e+00 0.0000e+00
       25  2    1    2    0    0 -3.5361146513e+01 +3.4208419896e+01 -1.0308531066e+01 1.3472871513e+02 1.2499973677e+02 0.0000e+00 0.0000e+00
      -11  1    3    3    0    0 +1.7501882158e+00 -5.3060438110e+01 -1.9493700932e+01 5.6555084893e+01 0.0000000000e+00 0.0000e+00 1.0000e+00
       11  1    3    3    0    0 +3.3610958297e+01 +1.8852018215e+01 +2.9802231997e+01 4.8716199980e+01 0.0000000000e+00 0.0000e+00 -1.0000e+00
        5  1    4    4  501    0 +3.1934818311e+00 -1.8874268644e+01 -4.5782089611e+00 2.0235768835e+01 4.7000000000e+00 0.0000e+00 -1.0000e+00
       -5  1    4    4    0  501 +2.2386088576e+01 -2.2318485808e+00 +5.3776388099e+00 2.3603540179e+01 4.7000000000e+00 0.0000e+00 -1.0000e+00
        5  1    4    4  502    0 -4.4209007905e+01 +5.6683246040e+01 -4.2750664324e+00 7.2165039698e+01 4.7000000000e+00 0.0000e+00 -1.0000e+00
       -5  1    4    4    0  502 -1.6731709015e+01 -1.3687089191e+00 -6.8328944819e+00 1.8724366415e+01 4.7000000000e+00 0.0000e+00 -1.0000e+00
</event>
<event>
10      1 +4.6527485e-10 2.40000000e+02 7.81860800e-03 1.03012300e-01
      -11 -1    0    0    0    0 +0.0000000000e+00 +0.0000000000e+00 +1.2000000000e+02 1.2000000000e+02 0.0000000000e+00 0.0000e+00 -1.0000e+00
       11 -1    0    0    0    0 -0.0000000000e+00 -0.0000000000e+00 -1.2000000000e+02 1.2000000000e+02 0.0000000000e+00 0.0000e+00 1.0000e+00
       23  2    1    2    0    0 +2.7048754530e+01 +3.3700046643e+01 -2.9226788629e+01 1.0454965322e+02 9.0604064752e+01 0.0000e+00 0.0000e+00
       25  2    1    2    0    0 -2.7048754530e+01 -3.3700046643e+01 +2.9226788629e+01 1.3545034678e+02 1.2500105201e+02 0.0000e+00 0.0000e+00
      -13  1    3    3    0    0 +2.3600111034e+01 -1.2463214310e+01 -4.7739466959e+01 5.4693268848e+01 0.0000000000e+00 0.0000e+00 1.0000e+00
       13  1    3    3    0    0 +3.4486434965e+00 +4.6163260953e+01 +1.8512678330e+01 4.9856384372e+01 0.0000000000e+00 0.0000e+00 -1.0000e+00
        5  1    4    4  501    0 -7.8440794640e+00 -5.1203949024e+00 +3.2469653861e+01 3.4119150758e+01 4.7000000000e+00 0.0000e+00 1.0000e+00
       -5  1    4    4    0  501 -1.7165151314e+01 -3.2335106728e+01 +4.0062767037e+01 5.4473083715e+01 4.7000000000e+00 0.0000e+00 1.0000e+00
        5  1    4    4  502    0 +5.0428186467e-02 +8.0254283253e+00 -1.4057121637e+01 1.6855346674e+01 4.7000000000e+00 0.0000e+00 -1.0000e+00
       -5  1    4    4    0  502 -2.0899519390e+00 -4.2699733370e+00 -2.9248510633e+01 3.0002765633e+01 4.7000000000e+00 0.0000e+00 -1.0000e+00
</event>
<event>
10      1 +4.6527485e-10 2.40000000e+02 7.81860800e-03 1.03012300e-01
      -11 -1    0    0    0    0 +0.0000000000e+00 +0.0000000000e+00 +1.2000000000e+02 1.2000000000e+02 0.0000000000e+00 0.0000e+00 1.0000e+00
       11 -1    0    0    0    0 -0.0000000000e+00 -0.0000000000e+00 -1.2000000000e+02 1.2000000000e+02 0.0000000000e+00 0.0000e+00 -1.0000e+00
       23  2    1    2    0    0 -1.9697606602e+01 +3.0479742955e+01 +4.1226067524e+01 1.0346493583e+02 8.7683486849e+01 0.0000e+00 0.0000e+00
       25  2    1    2    0    0 +1.9697606602e+01 -3.0479742955e+01 -4.1226067524e+01 1.3653506417e+02 1.2500089867e+02 0.0000e+00 0.0000e+00
      -13  1    3    3    0    0 -2.8518227364e+01 +9.3814559212e+00 +6.4309599429e+01 7.0972005649e+01 0.0000000000e+00 0.0000e+00 1.0000e+00
       13  1    3    3    0    0 +8.8206207621e+00 +2.1098287034e+01 -2.3083531905e+01 3.2492930179e+01 0.0000000000e+00 0.0000e+00 -1.0000e+00
        5  1    4    4  501    0 +5.5302033980e+01 -2.6738391924e+00 +2.0097370936e+00 5.5602099075e+01 4.7000000000e+00 0.0000e+00 1.0000e+00
       -5  1    4    4    0  502 -6.3276203004e+00 -2.6257832541e-01 +3.2007013735e-01 7.8930457325e+00 4.7000000000e+00 0.0000e+00 -1.0000e+00
        5  1    4    4  502    0 -3.9242965383e+01 -2.6432671589e+01 -3.5842018158e+01 5.9543569972e+01 4.7000000000e+00 0.0000e+00 -1.0000e+00
       -5  1    4    4    0  501 +9.9661583055e+00 -1.1106538487e+00 -7.7138565967e+00 1.3496349393e+01 4.7000000000e+00 0.0000e+00 1.0000e+00
</event>
<event>
10      1 +4.6527485e-10 2.40000000e+02 7.81860800e-03 1.03012300e-01
      -11 -1    0    0    0    0 +0.0000000000e+00 +0.0000000000e+00 +1.2000000000e+02 1.2000000000e+02 0.0000000000e+00 0.0000e+00 1.0000e+00
       11 -1    0    0    0    0 -0.0000000000e+00 -0.0000000000e+00 -1.2000000000e+02 1.2000000000e+02 0.0000000000e+00 0.0000e+00 -1.0000e+00
       23  2    1    2    0    0 +3.3963912073e+01 +2.3470809785e+01 +3.3037804993e+01 1.0427692604e+02 8.9876328979e+01 0.0000e+00 0.0000e+00
       25  2    1    2    0    0 -3.3963912073e+01 -2.3470809785e+01 -3.3037804993e+01 1.3572307396e+02 1.2499932004e+02 0.0000e+00 0.0000e+00
      -13  1    3    3    0    0 -4.0986648912e+00 +3.0084315064e+01 -2.1670919005e+01 3.7302731767e+01 0.0000000000e+00 0.0000e+00 -1.0000e+00
       13  1    3    3    0    0 +3.8062576964e+01 -6.6135052795e+00 +5.4708723998e+01 6.6974194275e+01 0.0000000000e+00 0.0000e+00 1.0000e+00
        5  1    4    4  501    0 +7.1785373304e+00 -2.4149157795e+01 -5.5542300240e+00 2.6223132757e+01 4.7000000000e+00 0.0000e+00 1.0000e+00
       -5  1    4    4    0  501 +2.8231652145e+01 -9.2858898898e+00 +4.0006244091e+00 3.0353730077e+01 4.7000000000e+00 0.0000e+00 1.0000e+00
        5  1    4    4  502    0 -1.7745925232e+01 +7.6064852357e+00 -1.4292812106e+01 2.4477560293e+01 4.7000000000e+00 0.0000e+00 1.0000e+00
       -5  1    4    4    0  502 -5.1628176317e+01 +2.3577526647e+00 -1.7191387272e+01 5.4668650832e+01 4.7000000000e+00 0.0000e+00 1.0000e+00
</event>
<event>
10      1 +4.6527485e-10 2.40000000e+02 7.81860800e-03 1.03012300e-01
      -11 -1    0    0    0    0 +0.0000000000e+00 +0.0000000000e+00 +1.2000000000e+02 1.2000000000e+02 0.0000000000e+00 0.0000e+00 1.0000e+00
       11 -1    0    0    0    0 -0.0000000000e+00 -0.0000000000e+00 -1.2000000000e+02 1.2000000000e+02 0.0000000000e+00 0.0000e+00 -1.0000e+00
       23  2    1    2    0    0 +4.0323779688e+01 -1.6552370162e+01 +2.8036446635e+01 1.0468882669e+02 9.0959990809e+01 0.0000e+00 0.0000e+00
       25  2    1    2    0    0 -4.0323779688e+01 +1.6552370162e+01 -2.8036446635e+01 1.3531117331e+02 1.2499233223e+02 0.0000e+00 0.0000e+00
      -13  1    3    3    0    0 +3.3118948945e+01 -2.7717642412e+01 -2.5076004857e+01 4.9939348211e+01 0.0000000000e+00 0.0000e+00 -1.0000e+00
       13  1    3    3    0    0 +7.2048307427e+00 +1.1165272250e+01 +5.3112451492e+01 5.4749478481e+01 0.0000000000e+00 0.0000e+00 1.0000e+00
        5  1    4    4  501    0 -1.2408552488e-01 -4.0536580349e+01 +1.8857317932e+01 4.4954623602e+01 4.7000000000e+00 0.0000e+00 1.0000e+00
       -5  1    4    4    0  502 -7.6653021351e+00 +1.9477730054e+01 -1.1696489681e+01 2.4434334362e+01 4.7000000000e+00 0.0000e+00 1.0000e+00
        5  1    4    4  502    0 -2.7319474111e+01 +2.8290862017e+01 -3.6896000299e+01 5.4130687945e+01 4.7000000000e+00 0.0000e+00 1.0000e+00
       -5  1    4    4    0  501 -5.2149179172e+00 +9.3203584408e+00 +1.6987254132e+00 1.1791527398e+01 4.7000000000e+00 0.0000e+00 1.0000e+00
</event>
<event>
10      1 +4.6527485e-10 2.40000000e+02 7.81860800e-03 1.03012300e-01
      -11 -1    0    0    0    0 +0.0000000000e+00 +0.0000000000e+00 +1.2000000000e+02 1.2000000000e+02 0.0000000000e+00 0.0000e+00 1.0000e+00
       11 -1    0    0    0    0 -0.0000000000e+00 -0.0000000000e+00 -1.2000000000e+02 1.2000000000e+02 0.0000000000e+00 0.0000e+00 -1.0000e+00
       23  2    1    2    0    0 +2.5201693987e+01 -4.4880417018e+01 +6.5281080451e+00 1.0466033215e+02 9.0894398728e+01 0.0000e+00 0.0000e+00
       25  2    1    2    0    0 -2.5201693987e+01 +4.4880417018e+01 -6.5281080451e+00 1.3533966785e+02 1.2499932915e+02 0.0000e+00 0.0000e+00
      -11  1    3    3    0    0 +5.9575055643e+00 +8.9088367148e+00 -3.3324262653e+01 3.5005224261e+01 0.0000000000e+00 0.0000e+00 -1.0000e+00
       11  1    3    3    0    0 +1.9244188422e+01 -5.3789253733e+01 +3.9852370698e+01 6.9655107892e+01 0.0000000000e+00 0.0000e+00 1.0000e+00
        5  1    4    4  501    0 +6.9341234948e-01 -5.5487166719e+00 +4.0505748062e+01 4.1159138760e+01 4.7000000000e+00 0.0000e+00 1.0000e+00
       -5  1    4    4    0  502 -9.8634522552e+00 +4.3180130650e+01 -3.5429476326e+01 5.6913523578e+01 4.7000000000e+00 0.0000e+00 -1.0000e+00
        5  1    4    4  502    0 -1.3805662244e+01 +1.4277003226e+01 -1.7365200411e+01 2.6796815416e+01 4.7000000000e+00 0.0000e+00 -1.0000e+00
       -5  1    4    4    0  501 -2.2259918373e+00 -7.0280001867e+00 +5.7608206298e+00 1.0470190094e+01 4.7000000000e+00 0.0000e+00 1.0000e+00
</event>
<event>
10      1 +4.6527485e-10 2.40000000e+02 7.81860800e-03 1.03012300e-01
      -11 -1    0    0    0    0 +0.0000000000e+00 +0.0000000000e+00 +1.2000000000e+02 1.2000000000e+02 0.0000000000e+00 0.0000e+00 -1.0000e+00
       11 -1    0    0    0    0 -0.0000000000e+00 -0.0000000000e+00 -1.2000000000e+02 1.2000000000e+02 0.0000000000e+00 0.0000e+00 1.0000e+00
       23  2    1    2    0    0 -6.5407024393e+00 +2.9788458666e+01 +4.3436506048e+01 1.0417997888e+02 8.9647113078e+01 0.0000e+00 0.0000e+00
       25  2    1    2    0    0 +6.5407024393e+00 -2.9788458666e+01 -4.3436506048e+01 1.3582002112e+02 1.2502085835e+02 0.0000e+00 0.0000e+00
      -11  1    3    3    0    0 +4.0191636523e+01 +6.0116360578e+00 +9.5376276958e+00 4.1742948585e+01 0.0000000000e+00 0.0000e+00 1.0000e+00
       11  1    3    3    0    0 -4.6732338963e+01 +2.3776822608e+01 +3.3898878352e+01 6.2437030293e+01 0.0000000000e+00 0.0000e+00 -1.0000e+00
        5  1    4    4  501    0 -3.7855295165e+01 -1.7310275216e+01 +1.4433566258e+01 4.4306735775e+01 4.7000000000e+00 0.0000e+00 1.0000e+00
       -5  1    4    4    0  502 +1.2002543081e+01 -7.3254329286e+00 -1.3830088772e+01 2.0275215497e+01 4.7000000000e+00 0.0000e+00 1.0000e+00
        5  1    4    4  502    0 +3.8134910172e+01 +3.7186292874e+00 -4.5399884596e+01 5.9593112848e+01 4.7000000000e+00 0.0000e+00 1.0000e+00
       -5  1    4    4    0  501 -5.7414556485e+00 -8.8713798087e+00 +1.3599010611e+00 1.1644957002e+01 4.7000000000e+00 0.0000e+00 1.0000e+00
</event>
<event>
10      1 +4.6527485e-10 2.40000000e+02 7.81860800e-03 1.03012300e-01
      -11 -1    0    0    0    0 +0.0000000000e+00 +0.0000000000e+00 +1.2000000000e+02 1.2000000000e+02 0.0000000000e+00 0.0000e+00 -1.0000e+00
       11 -1    0    0    0    0 -0.0000000000e+00 -0.0000000000e+00 -1.2000000000e+02 1.2000000000e+02 0.0000000000e+00 0.0000e+00 1.0000e+00
       23  2    1    2    0    0 +3.7073841555e+00 +1.8139240606e+01 +4.8602400203e+01 1.0461327344e+02 9.0768755241e+01 0.0000e+00 0.0000e+00
       25  2    1    2    0    0 -3.7073841555e+00 -1.8139240606e+01 -4.8602400203e+01 1.3538672656e+02 1.2499838269e+02 0.0000e+00 0.0000e+00
      -13  1    3    3    0    0 -1.9745943738e+01 -2.9733409696e+01 +3.4107011625e+01 4.9368676185e+01 0.0000000000e+00 0.0000e+00 -1.0000e+00
       13  1    3    3    0    0 +2.3453327894e+01 +4.7872650302e+01 +1.4495388578e+01 5.5244597259e+01 0.0000000000e+00 0.0000e+00 1.0000e+00
        5  1    4    4  501    0 +4.4001276826e+00 +3.7899488502e+00 -4.1102769814e+00 8.5269697298e+00 4.7000000000e+00 0.0000e+00 1.0000e+00
       -5  1    4    4    0  502 -2.8523473723e+00 -8.2903832268e+00 -7.6370024070e+00 1.2541138120e+01 4.7000000000e+00 0.0000e+00 1.0000e+00
        5  1    4    4  502    0 -2.6719381734e+01 -3.5207062765e+01 -6.0800124644e+01 7.5314061008e+01 4.7000000000e+00 0.0000e+00 1.0000e+00
       -5  1    4    4    0  501 +2.1464217268e+01 +2.1568256536e+01 +2.3945003829e+01 3.9004557699e+01 4.7000000000e+00 0.0000e+00 1.0000e+00
</event>
<event>
10      1 +4.6527485e-10 2.40000000e+02 7.81860800e-03 1.03012300e-01
      -11 -1    0    0    0    0 +0.0000000000e+00 +0.0000000000e+00 +1.2000000000e+02 1.2000000000e+02 0.0000000000e+00 0.0000e+00 1.0000e+00
       11 -1    0    0    0    0 -0.0000000000e+00 -0.0000000000e+00 -1.2000000000e+02 1.2000000000e+02 0.0000000000e+00 0.0000e+00 -1.0000e+00
       23  2    1    2    0    0 +4.7579187607e+01 -1.8625737699e+01 +1.2392584951e+01 1.0439454117e+02 9.0188396514e+01 0.0000e+00 0.0000e+00
       25  2    1    2    0    0 -4.7579187607e+01 +1.8625737699e+01 -1.2392584951e+01 1.3560545883e+02 1.2499826841e+02 0.0000e+00 0.0000e+00
      -11  1    3    3    0    0 -2.3185822349e+01 -2.0786385087e+01 +1.2611483595e+01 3.3596215285e+01 0.0000000000e+00 0.0000e+00 -1.0000e+00
       11  1    3    3    0    0 +7.0765009956e+01 +2.1606473889e+00 -2.1889864427e-01 7.0798325883e+01 0.0000000000e+00 0.0000e+00 1.0000e+00
        5  1    4    4  501    0 -2.0428580831e+01 -8.9465566830e+00 -4.0285369383e+01 4.6285729740e+01 4.7000000000e+00 0.0000e+00 1.0000e+00
       -5  1    4    4    0  501 -2.6318704307e+01 -6.4285387592e+00 -1.5243620646e+01 3.1439756319e+01 4.7000000000e+00 0.0000e+00 1.0000e+00
        5  1    4    4  502    0 +3.7818251919e-01 +3.3329292090e+01 +3.8406386098e+01 5.1069807385e+01 4.7000000000e+00 0.0000e+00 1.0000e+00
       -5  1    4    4    0  502 -1.2100849879e+00 +6.7154105028e-01 +4.7300189804e+00 6.8101653882e+00 4.7000000000e+00 0.0000e+00 1.0000e+00
</event>
<event>
10      1 +4.6527485e-10 2.40000000e+02 7.81860800e-03 1.03012300e-01
      -11 -1    0    0    0    0 +0.0000000000e+00 +0.0000000000e+00 +1.2000000000e+02 1.2000000000e+02 0.0000000000e+00 0.0000e+00 1.0000e+00
       11 -1    0    0    0    0 -0.0000000000e+00 -0.0000000000e+00 -1.2000000000e+02 1.2000000000e+02 0.0000000000e+00 0.0000e+00 -1.0000e+00
       23  2    1    2    0    0 -2.5723295674e+01 -2.7460665519e+01 -3.4505529445e+01 1.0498057200e+02 9.1730653792e+01 0.0000e+00 0.0000e+00
       25  2    1    2    0    0 +2.5723295674e+01 +2.7460665519e+01 +3.4505529445e+01 1.3501942800e+02 1.2499535304e+02 0.0000e+00 0.0000e+00
      -11  1    3    3    0    0 +2.5571367585e+01 +5.2621177409e+00 -3.5576270361e+01 4.4127720722e+01 0.0000000000e+00 0.0000e+00 -1.0000e+00
       11  1    3    3    0    0 -5.1294663259e+01 -3.2722783260e+01 +1.0707409162e+00 6.0852851283e+01 0.0000000000e+00 0.0000e+00 1.0000e+00
        5  1    4    4  501    0 +1.4083886142e+01 +1.0257125008e+00 +1.3385718577e+01 2.0016877799e+01 4.7000000000e+00 0.0000e+00 -1.0000e+00
       -5  1    4    4    0  502 -5.7120589388e+00 +1.6991127258e+01 -3.2322378500e+01 3.7257914256e+01 4.7000000000e+00 0.0000e+00 -1.0000e+00
        5  1    4    4  502    0 -1.1339090950e+01 +6.2986097600e+00 -3.0528483687e+00 1.4130015982e+01 4.7000000000e+00 0.0000e+00 -1.0000e+00
       -5  1    4    4    0  501 +2.8690559421e+01 +3.1452160004e+00 +5.6495037736e+01 6.3614619958e+01 4.7000000000e+00 0.0000e+00 -1.0000e+00
</event>
<event>
10      1 +4.6527485e-10 2.40000000e+02 7.81860800e-03 1.03012300e-01
      -11 -1    0    0    0    0 +0.0000000000e+00 +0.0000000000e+00 +1.2000000000e+02 1.2000000000e+02 0.0000000000e+00 0.0000e+00 -1.0000e+00
       11 -1    0    0    0    0 -0.0000000000e+00 -0.0000000000e+00 -1.2000000000e+02 1.2000000000e+02 0.0000000000e+00 0.0000e+00 1.0000e+00
       23  2    1    2    0    0 +2.9826292190e+01 -1.0365347431e+01 +1.3072713105e+01 1.1040526744e+02 1.0498275628e+02 0.0000e+00 0.0000e+00
       25  2    1    2    0    0 -2.9826292190e+01 +1.0365347431e+01 -1.3072713105e+01 1.2959473256e+02 1.2500740277e+02 0.0000e+00 0.0000e+00
      -11  1    3    3    0    0 -3.8957576540e+01 -6.3653905113e+00 +1.2823125873e+01 4.1504740975e+01 0.0000000000e+00 0.0000e+00 -1.0000e+00
       11  1    3    3    0    0 +6.8783868729e+01 -3.9999569195e+00 +2.4958723119e-01 6.8900526461e+01 0.0000000000e+00 0.0000e+00 1.0000e+00
        5  1    4    4  501    0 -3.1488405689e+01 +8.8932028866e+00 +8.0023224843e+00 3.4010820566e+01 4.7000000000e+00 0.0000e+00 -1.0000e+00
       -5  1    4    4    0  501 -2.9310498547e+01 -1.8808127651e+01 +1.6662467387e+01 3.8891886175e+01 4.7000000000e+00 0.0000e+00 -1.0000e+00
        5  1    4    4  502    0 +1.1993495414e+01 -1.5777092976e+00 -1.1838139490e+01 1.7566008239e+01 4.7000000000e+00 0.0000e+00 1.0000e+00
       -5  1    4    4    0  502 +1.8979116632e+01 +2.1857981493e+01 -2.5899363486e+01 3.9126017585e+01 4.7000000000e+00 0.0000e+00 1.0000e+00
</event>
<event>
10      1 +4.6527485e-10 2.40000000e+02 7.81860800e-03 1.03012300e-01
      -11 -1    0    0    0    0 +0.0000000000e+00 +0.0000000000e+00 +1.2000000000e+02 1.2000000000e+02 0.0000000000e+00 0.0000e+00 -1.0000e+00
       11 -1    0    0    0    0 -0.0000000000e+00 -0.0000000000e+00 -1.2000000000e+02 1.2000000000e+02 0.0000000000e+00 0.0000e+00 1.0000e+00
       23  2    1    2    0    0 -1.3546278179e+01 -4.4530957324e+01 -2.2370247237e+01 1.0475434196e+02 9.1140201803e+01 0.0000e+00 0.0000e+00
       25  2    1    2    0    0 +1.3546278179e+01 +4.4530957324e+01 +2.2370247237e+01 1.3524565804e+02 1.2499780896e+02 0.0000e+00 0.0000e+00
      -13  1    3    3    0    0 +8.7719570465e+00 +5.6038748800e+00 -4.4411720148e+01 4.5615255459e+01 0.0000000000e+00 0.0000e+00 1.0000e+00
       13  1    3    3    0    0 -2.2318235226e+01 -5.0134832204e+01 +2.2041472911e+01 5.9139086498e+01 0.0000000000e+00 0.0000e+00 -1.0000e+00
        5  1    4    4  501    0 -1.1495441174e+01 +2.4453938129e+01 +4.2175631613e+01 5.0309185640e+01 4.7000000000e+00 0.0000e+00 -1.0000e+00
       -5  1    4    4    0  502 +2.2805327683e+01 +4.8310713977e+00 -3.0936871675e+01 3.9020536268e+01 4.7000000000e+00 0.0000e+00 1.0000e+00
        5  1    4    4  502    0 +6.7682006325e+00 +1.4345700803e+01 -1.2911600028e+01 2.0985878267e+01 4.7000000000e+00 0.0000e+00 1.0000e+00
       -5  1    4    4    0  501 -4.5318089626e+00 +9.0024699427e-01 +2.4043087327e+01 2.4930057869e+01 4.7000000000e+00 0.0000e+00 -1.0000e+00
</event>
<event>
10      1 +4.6527485e-10 2.40000000e+02 7.81860800e-03 1.03012300e-01
      -11 -1    0    0    0    0 +0.0000000000e+00 +0.0000000000e+00 +1.2000000000e+02 1.2000000000e+02 0.0000000000e+00 0.0000e+00 -1.0000e+00
       11 -1    0    0    0    0 -0.0000000000e+00 -0.0000000000e+00 -1.2000000000e+02 1.2000000000e+02 0.0000000000e+00 0.0000e+00 1.0000e+00
       23  2    1    2    0    0 -4.1593691055e+01 -2.1792738924e+01 +2.2409026963e+01 1.0461528026e+02 9.0759207622e+01 0.0000e+00 0.0000e+00
       25  2    1    2    0    0 +4.1593691055e+01 +2.1792738924e+01 -2.2409026963e+01 1.3538471974e+02 1.2498759637e+02 0.0000e+00 0.0000e+00
      -13  1    3    3    0    0 -1.2335736222e+01 -4.8980859100e+01 +3.6439154021e+01 6.2282476605e+01 0.0000000000e+00 0.0000e+00 -1.0000e+00
       13  1    3    3    0    0 -2.9257954832e+01 +2.7188120176e+01 -1.4030127058e+01 4.2332803651e+01 0.0000000000e+00 0.0000e+00 1.0000e+00
        5  1    4    4  501    0 +4.2770389983e+01 -8.7612524678e+00 -4.4252691868e+01 6.2341451232e+01 4.7000000000e+00 0.0000e+00 1.0000e+00
       -5  1    4    4    0  501 +4.6571065567e+00 -1.0154647502e+01 -1.0074299608e+01 1.5760298854e+01 4.7000000000e+00 0.0000e+00 1.0000e+00
        5  1    4    4  502    0 -1.0951870046e+01 +2.5235023779e+01 +1.0171508351e+01 2.9703526133e+01 4.7000000000e+00 0.0000e+00 -1.0000e+00
       -5  1    4    4    0  502 +5.1180645609e+00 +1.5473615115e+01 +2.1746456162e+01 2.7579443525e+01 4.7000000000e+00 0.0000e+00 -1.0000e+00
</event>
<event>
10      1 +4.6527485e-10 2.40000000e+02 7.81860800e-03 1.03012300e-01
      -11 -1    0    0    0    0 +0.0000000000e+00 +0.0000000000e+00 +1.2000000000e+02 1.2000000000e+02 0.0000000000e+00 0.0000e+00 1.0000e+00
       11 -1    0    0    0    0 -0.0000000000e+00 -0.0000000000e+00 -1.2000000000e+02 1.2000000000e+02 0.0000000000e+00 0.0000e+00 -1.0000e+00
       23  2    1    2    0    0 -3.4782067025e+01 -1.9892587365e+01 -1.9979027821e+01 1.0722365649e+02 9.7428146553e+01 0.0000e+00 0.0000e+00
       25  2    1    2    0    0 +3.4782067025e+01 +1.9892587365e+01 +1.9979027821e+01 1.3277634351e+02 1.2499955449e+02 0.0000e+00 0.0000e+00
      -11  1    3    3    0    0 +3.1566593113e+01 -1.9645197624e+01 +2.2536979106e+00 3.7248660979e+01 0.0000000000e+00 0.0000e+00 -1.0000e+00
       11  1    3    3    0    0 -6.6348660138e+01 -2.4738974130e-01 -2.2232725732e+01 6.9974995515e+01 0.0000000000e+00 0.0000e+00 1.0000e+00
        5  1    4    4  501    0 -1.3347749052e+01 +3.6410205634e+00 -3.9142354153e+01 4.1780776969e+01 4.7000000000e+00 0.0000e+00 -1.0000e+00
       -5  1    4    4    0  501 -1.4553798453e+00 -7.4192944057e+00 +2.0478952270e+00 9.1349841179e+00 4.7000000000e+00 0.0000e+00 -1.0000e+00
        5  1    4    4  502    0 +3.5676268619e+01 +2.3291051726e+01 +3.4954421232e+01 5.5309771259e+01 4.7000000000e+00 0.0000e+00 1.0000e+00
       -5  1    4    4    0  502 +1.3908927303e+01 +3.7980948134e-01 +2.2119065515e+01 2.6550811160e+01 4.7000000000e+00 0.0000e+00 1.0000e+00
</event>
<event>
10      1 +4.6527485e-10 2.40000000e+02 7.81860800e-03 1.03012300e-01
      -11 -1    0    0    0    0 +0.0000000000e+00 +0.0000000000e+00 +1.2000000000e+02 1.2000000000e+02 0.0000000000e+00 0.0000e+00 -1.0000e+00
       11 -1    0    0    0    0 -0.0000000000e+00 -0.0000000000e+00 -1.2000000000e+02 1.2000000000e+02 0.0000000000e+00 0.0000e+00 1.0000e+00
       23  2    1    2    0    0 -8.3476933987e+00 +1.6826978259e+01 +4.6375903482e+01 1.0534115128e+02 9.2699528294e+01 0.0000e+00 0.0000e+00
       25  2    1    2    0    0 +8.3476933987e+00 -1.6826978259e+01 -4.6375903482e+01 1.3465884872e+02 1.2501779847e+02 0.0000e+00 0.0000e+00
      -13  1    3    3    0    0 -2.5148311723e+01 -3.2376504911e+01 +3.0103289503e+01 5.0861416532e+01 0.0000000000e+00 0.0000e+00 -1.0000e+00
       13  1    3    3    0    0 +1.6800618325e+01 +4.9203483169e+01 +1.6272613980e+01 5.4479734744e+01 0.0000000000e+00 0.0000e+00 1.0000e+00
        5  1    4    4  501    0 +1.8919538626e+00 +1.6161345713e+00 -1.6011089333e+01 1.6871169551e+01 4.7000000000e+00 0.0000e+00 -1.0000e+00
       -5  1    4    4    0  501 -7.2637638024e+00 -2.4860458176e+01 -6.8176009581e+01 7.3081207760e+01 4.7000000000e+00 0.0000e+00 -1.0000e+00
        5  1    4    4  502    0 +8.6597987908e+00 +1.0489151480e+01 +3.1035681101e+01 3.4209909607e+01 4.7000000000e+00 0.0000e+00 -1.0000e+00
       -5  1    4    4    0  502 +5.0597045477e+00 -4.0718061344e+00 +6.7755143309e+00 1.0496561806e+01 4.7000000000e+00 0.0000e+00 -1.0000e+00
</event>
<event>
10      1 +4.6527485e-10 2.40000000e+02 7.81860800e-03 1.03012300e-01
      -11 -1    0    0    0    0 +0.0000000000e+00 +0.0000000000e+00 +1.2000000000e+02 1.2000000000e+02 0.0000000000e+00 0.0000e+00 1.0000e+00
       11 -1    0    0    0    0 -0.0000000000e+00 -0.0000000000e+00 -1.2000000000e+02 1.2000000000e+02 0.0000000000e+00 0.0000e+00 -1.0000e+00
       23  2    1    2    0    0 -3.2610188384e+00 +8.7082405196e+00 +5.2420903804e+01 1.0413473078e+02 8.9496498822e+01 0.0000e+00 0.0000e+00
       25  2    1    2    0    0 +3.2610188384e+00 -8.7082405196e+00 -5.2420903804e+01 1.3586526922e+02 1.2499981012e+02 0.0000e+00 0.0000e+00
      -13  1    3    3    0    0 +5.7071954497e+00 +3.9214243891e+01 -3.5253791177e+00 3.9783882437e+01 0.0000000000e+00 0.0000e+00 -1.0000e+00
       13  1    3    3    0    0 -8.9682142881e+00 -3.0506003372e+01 +5.5946282921e+01 6.4350848339e+01 0.0000000000e+00 0.0000e+00 1.0000e+00
        5  1    4    4  501    0 +2.3684420560e+01 -3.5697516518e+01 -2.3996261243e+01 4.9327223887e+01 4.7000000000e+00 0.0000e+00 1.0000e+00
       -5  1    4    4    0  501 +1.8952994929e+01 -1.0471413891e+01 -1.4891552548e+01 2.6696720079e+01 4.7000000000e+00 0.0000e+00 1.0000e+00
        5  1    4    4  502    0 -3.8990643386e+01 +3.3974168310e+01 -9.6778638427e+00 5.2822963118e+01 4.7000000000e+00 0.0000e+00 1.0000e+00
       -5  1    4    4    0  502 -3.8575326382e-01 +3.4865215797e+00 -3.8552261700e+00 7.0183621400e+00 4.7000000000e+00 0.0000e+00 1.0000e+00
</event>
<event>
10      1 +4.6527485e-10 2.40000000e+02 7.81860800e-03 1.03012300e-01
      -11 -1    0    0    0    0 +0.0000000000e+00 +0.0000000000e+00 +1.2000000000e+02 1.2000000000e+02 0.0000000000e+00 0.0000e+00 1.0000e+00
       11 -1    0    0    0    0 -0.0000000000e+00 -0.0000000000e+00 -1.2000000000e+02 1.2000000000e+02 0.0000000000e+00 0.0000e+00 -1.0000e+00
       23  2    1    2    0    0 -5.1710205695e+01 -7.5974486964e+00 +1.6258216494e+00 1.0450558242e+02 9.0482632928e+01 0.0000e+00 0.0000e+00
       25  2    1    2    0    0 +5.1710205695e+01 +7.5974486964e+00 -1.6258216494e+00 1.3549441758e+02 1.2499770918e+02 0.0000e+00 0.0000e+00
      -11  1    3    3    0    0 -1.5504582716e+01 +2.6021429100e+01 +3.3923228903e+01 4.5478481909e+01 0.0000000000e+00 0.0000e+00 1.0000e+00
       11  1    3    3    0    0 -3.6205622980e+01 -3.3618877796e+01 -3.2297407254e+01 5.9027100512e+01 0.0000000000e+00 0.0000e+00 -1.0000e+00
        5  1    4    4  501    0 +2.3054255114e+00 -2.9878153861e+00 +1.9601702294e+01 2.0507529358e+01 4.7000000000e+00 0.0000e+00 1.0000e+00
       -5  1    4    4    0  501 -4.1935511313e+00 -3.4232849533e+01 +1.0299008632e+01 3.6299220887e+01 4.7000000000e+00 0.0000e+00 1.0000e+00
        5  1    4    4  502    0 +2.8657601792e+01 +3.2434863352e+01 -2.2714272301e+01 4.9105057451e+01 4.7000000000e+00 0.0000e+00 -1.0000e+00
       -5  1    4    4    0  502 +2.4940729524e+01 +1.2383250264e+01 -8.8122602735e+00 2.9582609881e+01 4.7000000000e+00 0.0000e+00 -1.0000e+00
</event>
<event>
10      1 +4.6527485e-10 2.40000000e+02 7.81860800e-03 1.03012300e-01
      -11 -1    0    0    0    0 +0.0000000000e+00 +0.0000000000e+00 +1.2000000000e+02 1.2000000000e+02 0.0000000000e+00 0.0000e+00 1.0000e+00
       11 -1    0    0    0    0 -0.0000000000e+00 -0.0000000000e+00 -1.2000000000e+02 1.2000000000e+02 0.0000000000e+00 0.0000e+00 -1.0000e+00
       23  2    1    2    0    0 +1.4930296545e+00 -5.9373916552e+01 -1.5814820272e+01 1.0070554991e+02 7.9774733703e+01 0.0000e+00 0.0000e+00
       25  2    1    2    0    0 -1.4930296545e+00 +5.9373916552e+01 +1.5814820272e+01 1.3929445009e+02 1.2500137672e+02 0.0000e+00 0.0000e+00
      -13  1    3    3    0    0 +3.9005126411e+01 -4.3621675404e+01 -1.2857251031e+01 5.9912931455e+01 0.0000000000e+00 0.0000e+00 -1.0000e+00
       13  1    3    3    0    0 -3.7512096757e+01 -1.5752241148e+01 -2.9575692410e+00 4.0792618451e+01 0.0000000000e+00 0.0000e+00 1.0000e+00
        5  1    4    4  501    0 +1.1261878955e+01 +5.1732171913e+01 +3.8114861351e+01 6.5405505763e+01 4.7000000000e+00 0.0000e+00 -1.0000e+00
       -5  1    4    4    0  501 +8.7699166058e+00 +2.1646794297e+01 +1.1914105061e+01 2.6637023858e+01 4.7000000000e+00 0.0000e+00 -1.0000e+00
        5  1    4    4  502    0 -1.5322127523e+01 -1.2873936367e+00 -2.5002349792e+01 2.9725956155e+01 4.7000000000e+00 0.0000e+00 -1.0000e+00
       -5  1    4    4    0  502 -6.2026976918e+00 -1.2717656021e+01 -9.2117963471e+00 1.7525964317e+01 4.7000000000e+00 0.0000e+00 -1.0000e+00
</event>
<event>
10      1 +4.6527485e-10 2.40000000e+02 7.81860800e-03 1.03012300e-01
      -11 -1    0    0    0    0 +0.0000000000e+00 +0.0000000000e+00 +1.2000000000e+02 1.2000000000e+02 0.0000000000e+00 0.0000e+00 1.0000e+00
       11 -1    0    0    0    0 -0.0000000000e+00 -0.0000000000e+00 -1.2000000000e+02 1.2000000000e+02 0.0000000000e+00 0.0000e+00 -1.0000e+00
       23  2    1    2    0    0 -9.6547305290e+00 -1.6560998872e+01 +4.9871789974e+01 1.0405857312e+02 8.9294516620e+01 0.0000e+00 0.0000e+00
       25  2    1    2    0    0 +9.6547305290e+00 +1.6560998872e+01 -4.9871789974e+01 1.3594142688e+02 1.2500158240e+02 0.0000e+00 0.0000e+00
      -11  1    3    3    0    0 +2.1872781490e+00 -3.0887142090e+01 +7.0071761259e+01 7.6608429419e+01 0.0000000000e+00 0.0000e+00 1.0000e+00
       11  1    3    3    0    0 -1.1842008678e+01 +1.4326143218e+01 -2.0199971284e+01 2.7450143696e+01 0.0000000000e+00 0.0000e+00 -1.0000e+00
        5  1    4    4  501    0 +5.4593638713e+01 +7.4677477437e+00 -5.2640680444e+01 7.6350271001e+01 4.7000000000e+00 0.0000e+00 1.0000e+00
       -5  1    4    4    0  501 +1.8951514601e+00 +1.6059187753e+00 -5.2653915987e+00 7.4823073217e+00 4.7000000000e+00 0.0000e+00 1.0000e+00
        5  1    4    4  502    0 -3.9674267944e+01 +7.7357900957e+00 +4.9628402583e-01 4.0696760107e+01 4.7000000000e+00 0.0000e+00 1.0000e+00
       -5  1    4    4    0  502 -7.1597916991e+00 -2.4845774289e-01 +7.5379980431e+00 1.1412088456e+01 4.7000000000e+00 0.0000e+00 -1.0000e+00
</event>
<event>
10      1 +4.6527485e-10 2.40000000e+02 7.81860800e-03 1.03012300e-01
      -11 -1    0    0    0    0 +0.0000000000e+00 +0.0000000000e+00 +1.2000000000e+02 1.2000000000e+02 0.0000000000e+00 0.0000e+00 1.0000e+00
       11 -1    0    0    0    0 -0.0000000000e+00 -0.0000000000e+00 -1.2000000000e+02 1.2000000000e+02 0.0000000000e+00 0.0000e+00 -1.0000e+00
       23  2    1    2    0    0 +2.9160897605e+01 +1.2546740995e+01 -3.8727951052e+01 1.0534132687e+02 9.2677733546e+01 0.0000e+00 0.0000e+00
       25  2    1    2    0    0 -2.9160897605e+01 -1.2546740995e+01 +3.8727951052e+01 1.3465867313e+02 1.2500130158e+02 0.0000e+00 0.0000e+00
      -11  1    3    3    0    0 -1.8772928311e+00 -7.9508678220e+00 +2.7879565208e+01 2.9051861966e+01 0.0000000000e+00 0.0000e+00 1.0000e+00
       11  1    3    3    0    0 +3.1038190436e+01 +2.0497608817e+01 -6.6607516261e+01 7.6289464903e+01 0.0000000000e+00 0.0000e+00 -1.0000e+00
        5  1    4    4  501    0 +5.7628410783e+00 -2.0440579541e+01 +4.0361551379e+01 4.5849454293e+01 4.7000000000e+00 0.0000e+00 1.0000e+00
       -5  1    4    4    0  502 -1.9378139413e+01 +2.0591415232e+01 -2.6435440824e+01 3.8992835238e+01 4.7000000000e+00 0.0000e+00 -1.0000e+00
        5  1    4    4  502    0 -3.3125789569e+00 +8.7364580765e+00 -4.3546960958e+00 1.1329265517e+01 4.7000000000e+00 0.0000e+00 -1.0000e+00
       -5  1    4    4    0  501 -1.2233020313e+01 -2.1434034762e+01 +2.9156536593e+01 3.8487118082e+01 4.7000000000e+00 0.0000e+00 1.0000e+00
</event>
<event>
10      1 +4.6527485e-10 2.40000000e+02 7.81860800e-03 1.03012300e-01
      -11 -1    0    0    0    0 +0.0000000000e+00 +0.0000000000e+00 +1.2000000000e+02 1.2000000000e+02 0.0000000000e+00 0.0000e+00 -1.0000e+00
       11 -1    0    0    0    0 -0.0000000000e+00 -0.0000000000e+00 -1.2000000000e+02 1.2000000000e+02 0.0000000000e+00 0.0000e+00 1.0000e+00
       23  2    1    2    0    0 -1.6137611836e+01 -2.4108433287e+01 +4.6684710613e+01 1.0344937874e+02 8.7639447081e+01 0.0000e+00 0.0000e+00
       25  2    1    2    0    0 +1.6137611836e+01 +2.4108433287e+01 -4.6684710613e+01 1.3655062126e+02 1.2499988356e+02 0.0000e+00 0.0000e+00
      -11  1    3    3    0    0 +1.6254967080e+00 -1.7121976752e+01 -2.4396739472e+01 2.9849710624e+01 0.0000000000e+00 0.0000e+00 1.0000e+00
       11  1    3    3    0    0 -1.7763108544e+01 -6.9864565345e+00 +7.1081450085e+01 7.3599668112e+01 0.0000000000e+00 0.0000e+00 -1.0000e+00
        5  1    4    4  501    0 -8.0625842632e+00 +9.1982116345e+00 +3.5047672610e+01 3.7417131339e+01 4.7000000000e+00 0.0000e+00 -1.0000e+00
       -5  1    4    4    0  501 +2.6522752788e+00 +5.5881505461e+00 +3.4551358206e+00 8.5023499234e+00 4.7000000000e+00 0.0000e+00 -1.0000e+00
        5  1    4    4  502    0 +1.3956675079e+01 +1.4431715659e+01 -5.4909372261e+01 5.8653153012e+01 4.7000000000e+00 0.0000e+00 -1.0000e+00
       -5  1    4    4    0  502 +7.5912457409e+00 -5.1096445534e+00 -3.0278146782e+01 3.1977986990e+01 4.7000000000e+00 0.0000e+00 -1.0000e+00
</event>
<event>
10      1 +4.6527485e-10 2.40000000e+02 7.81860800e-03 1.03012300e-01
      -11 -1    0    0    0    0 +0.0000000000e+00 +0.0000000000e+00 +1.2000000000e+02 1.2000000000e+02 0.0000000000e+00 0.0000e+00 1.0000e+00
       11 -1    0    0    0    0 -0.0000000000e+00 -0.0000000000e+00 -1.2000000000e+02 1.2000000000e+02 0.0000000000e+00 0.0000e+00 -1.0000e+00
       23  2    1    2    0    0 -3.2250778049e+01 -4.6415193927e+01 +2.0357176748e+00 1.0280012288e+02 8.5844267174e+01 0.0000e+00 0.0000e+00
       25  2    1    2    0    0 +3.2250778049e+01 +4.6415193927e+01 -2.0357176748e+00 1.3719987712e+02 1.2500071689e+02 0.0000e+00 0.0000e+00
      -11  1    3    3    0    0 -6.0945604522e+00 +1.8433202456e+01 +2.2715300464e+01 2.9881624705e+01 0.0000000000e+00 0.0000e+00 1.0000e+00
       11  1    3    3    0    0 -2.6156217596e+01 -6.4848396383e+01 -2.0679582789e+01 7.2918498179e+01 0.0000000000e+00 0.0000e+00 -1.0000e+00
        5  1    4    4  501    0 +1.0512549159e+01 +2.3126776932e+00 +2.8201953343e+00 1.2079141925e+01 4.7000000000e+00 0.0000e+00 1.0000e+00
       -5  1    4    4    0  501 +1.0087199764e+01 +2.9302011487e+01 -1.6534903105e+01 3.5438009213e+01 4.7000000000e+00 0.0000e+00 1.0000e+00
        5  1    4    4  502    0 +4.2247903261e+01 +2.3102057559e+01 -1.1985723047e+01 4.9843133433e+01 4.7000000000e+00 0.0000e+00 1.0000e+00
       -5  1    4    4    0  502 -3.0596874136e+01 -8.3015528122e+00 +2.3664713142e+01 3.9839592544e+01 4.7000000000e+00 0.0000e+00 1.0000e+00
</event>
<event>
10      1 +4.6527485e-10 2.40000000e+02 7.81860800e-03 1.03012300e-01
      -11 -1    0    0    0    0 +0.0000000000e+00 +0.0000000000e+00 +1.2000000000e+02 1.2000000000e+02 0.0000000000e+00 0.0000e+00 1.0000e+00
       11 -1    0    0    0    0 -0.0000000000e+00 -0.0000000000e+00 -1.2000000000e+02 1.2000000000e+02 0.0000000000e+00 0.0000e+00 -1.0000e+00
       23  2    1    2    0    0 +3.9006472958e+01 +3.0032131699e+01 +1.3577856275e+01 1.0497093988e+02 9.1712083018e+01 0.0000e+00 0.0000e+00
       25  2    1    2    0    0 -3.9006472958e+01 -3.0032131699e+01 -1.3577856275e+01 1.3502906012e+02 1.2500022011e+02 0.0000e+00 0.0000e+00
      -13  1    3    3    0    0 +3.0504897352e+01 -2.5206327044e+01 +2.6477578018e+01 4.7612706531e+01 0.0000000000e+00 0.0000e+00 1.0000e+00
       13  1    3    3    0    0 +8.5015756052e+00 +5.5238458743e+01 -1.2899721742e+01 5.7358233351e+01 0.0000000000e+00 0.0000e+00 -1.0000e+00
        5  1    4    4  501    0 -1.9046710415e+01 +3.9931961028e+00 +3.5666802250e-01 2.0023486330e+01 4.7000000000e+00 0.0000e+00 1.0000e+00
       -5  1    4    4    0  502 +2.2477765063e+01 +5.7140509244e+00 +1.0475373260e+01 2.5879021332e+01 4.7000000000e+00 0.0000e+00 1.0000e+00
        5  1    4    4  502    0 -4.7843326679e+00 +8.5009122861e+00 -2.5539895736e+01 2.7740433000e+01 4.7000000000e+00 0.0000e+00 1.0000e+00
       -5  1    4    4    0  501 -3.7653194938e+01 -4.8240291013e+01 +1.1299981788e+00 6.1386119456e+01 4.7000000000e+00 0.0000e+00 1.0000e+00
</event>
<event>
10      1 +4.6527485e-10 2.40000000e+02 7.81860800e-03 1.03012300e-01
      -11 -1    0    0    0    0 +0.0000000000e+00 +0.0000000000e+00 +1.2000000000e+02 1.2000000000e+02 0.0000000000e+00 0.0000e+00 1.0000e+00
       11 -1    0    0    0    0 -0.0000000000e+00 -0.0000000000e+00 -1.2000000000e+02 1.2000000000e+02 0.0000000000e+00 0.0000e+00 -1.0000e+00
       23  2    1    2    0    0 -4.8277414391e+00 +7.2039626969e-01 +5.0895567440e+01 1.0492788943e+02 9.1627927709e+01 0.0000e+00 0.0000e+00
       25  2    1    2    0    0 +4.8277414391e+00 -7.2039626969e-01 -5.0895567440e+01 1.3507211057e+02 1.2502115906e+02 0.0000e+00 0.0000e+00
      -13  1    3    3    0    0 +7.6116336499e+00 +2.7339044167e+01 +6.6035179016e+01 7.1874927273e+01 0.0000000000e+00 0.0000e+00 1.0000e+00
       13  1    3    3    0    0 -1.2439375089e+01 -2.6618647898e+01 -1.5139611575e+01 3.3052962154e+01 0.0000000000e+00 0.0000e+00 -1.0000e+00
        5  1    4    4  501    0 +9.7090111020e+00 -3.7697337129e+01 -4.5002189483e+01 5.9687864608e+01 4.7000000000e+00 0.0000e+00 1.0000e+00
       -5  1    4    4    0  502 -1.8974049929e+01 +5.9122747306e+00 +1.6724833714e+00 2.0490406629e+01 4.7000000000e+00 0.0000e+00 -1.0000e+00
        5  1    4    4  502    0 -4.7077533793e+00 +3.3262615509e+01 +1.4474461631e-01 3.3921607913e+01 4.7000000000e+00 0.0000e+00 -1.0000e+00
       -5  1    4    4    0  501 +1.8800533645e+01 -2.1979493810e+00 -7.7106059450e+00 2.0972231423e+01 4.7000000000e+00 0.0000e+00 1.0000e+00
</event>
<event>
10      1 +4.6527485e-10 2.40000000e+02 7.81860800e-03 1.03012300e-01
      -11 -1    0    0    0    0 +0.0000000000e+00 +0.0000000000e+00 +1.2000000000e+02 1.2000000000e+02 0.0000000000e+00 0.0000e+00 -1.0000e+00
       11 -1    0    0    0    0 -0.0000000000e+00 -0.0000000000e+00 -1.2000000000e+02 1.2000000000e+02 0.0000000000e+00 0.0000e+00 1.0000e+00
       23  2    1    2    0    0 +3.4403968064e+01 -1.2341200004e+01 +3.9157785304e+01 1.0400347447e+02 8.9148484647e+01 0.0000e+00 0.0000e+00
       25  2    1    2    0    0 -3.4403968064e+01 +1.2341200004e+01 -3.9157785304e+01 1.3599652553e+02 1.2500313825e+02 0.0000e+00 0.0000e+00
      -13  1    3    3    0    0 -1.1480797569e+01 -3.8604803776e+01 +3.9181660531e+00 4.0465931506e+01 0.0000000000e+00 0.0000e+00 1.0000e+00
       13  1    3    3    0    0 +4.5884765634e+01 +2.6263603772e+01 +3.5239619251e+01 6.3537542959e+01 0.0000000000e+00 0.0000e+00 -1.0000e+00
        5  1    4    4  501    0 +1.1546546281e+01 -2.9029151024e+00 -1.9212570564e+00 1.2943371886e+01 4.7000000000e+00 0.0000e+00 1.0000e+00
       -5  1    4    4    0  502 -6.5572553193e+01 +2.9171070548e+01 -4.9583067550e+01 8.7357207355e+01 4.7000000000e+00 0.0000e+00 1.0000e+00
        5  1    4    4  502    0 -2.1510083139e+00 +8.5671965588e-01 -1.6845436472e+00 5.5034982179e+00 4.7000000000e+00 0.0000e+00 -1.0000e+00
       -5  1    4    4    0  501 +2.1773047161e+01 -1.4783675097e+01 +1.4031082950e+01 3.0192448076e+01 4.7000000000e+00 0.0000e+00 1.0000e+00
</event>
<event>
10      1 +4.6527485e-10 2.40000000e+02 7.81860800e-03 1.03012300e-01
      -11 -1    0    0    0    0 +0.0000000000e+00 +0.0000000000e+00 +1.2000000000e+02 1.2000000000e+02 0.0000000000e+00 0.0000e+00 1.0000e+00
       11 -1    0    0    0    0 -0.0000000000e+00 -0.0000000000e+00 -1.2000000000e+02 1.2000000000e+02 0.0000000000e+00 0.0000e+00 -1.0000e+00
       23  2    1    2    0    0 -3.5382838405e+01 +4.1794447110e+01 -7.9054719887e+00 1.0330308246e+02 8.7237086703e+01 0.0000e+00 0.0000e+00
       25  2    1    2    0    0 +3.5382838405e+01 -4.1794447110e+01 +7.9054719887e+00 1.3669691754e+02 1.2499931885e+02 0.0000e+00 0.0000e+00
      -11  1    3    3    0    0 -5.1026340164e+00 -1.6064039305e+01 -2.9960489720e+01 3.4376171645e+01 0.0000000000e+00 0.0000e+00 -1.0000e+00
       11  1    3    3    0    0 -3.0280204389e+01 +5.7858486414e+01 +2.2055017731e+01 6.8926910819e+01 0.0000000000e+00 0.0000e+00 1.0000e+00
        5  1    4    4  501    0 +1.0966130330e+01 +7.9056276301e-01 -5.5737645046e+00 1.3192340757e+01 4.7000000000e+00 0.0000e+00 1.0000e+00
       -5  1    4    4    0  501 +5.4545341212e+01 -1.1018625441e+01 -3.9118981189e+00 5.5982115907e+01 4.7000000000e+00 0.0000e+00 1.0000e+00
        5  1    4    4  502    0 -3.9490401023e+01 -1.8494960938e+01 +6.8504699182e-01 4.3864731191e+01 4.7000000000e+00 0.0000e+00 -1.0000e+00
       -5  1    4    4    0  502 +9.3617678867e+00 -1.3071423493e+01 +1.6706087620e+01 2.3657729682e+01 4.7000000000e+00 0.0000e+00 -1.0000e+00
</event>
<event>
10      1 +4.6527485e-10 2.40000000e+02 7.81860800e-03 1.03012300e-01
      -11 -1    0    0    0    0 +0.0000000000e+00 +0.0000000000e+00 +1.2000000000e+02 1.2000000000e+02 0.0000000000e+00 0.0000e+00 1.0000e+00
       11 -1    0    0    0    0 -0.0000000000e+00 -0.0000000000e+00 -1.2000000000e+02 1.2000000000e+02 0.0000000000e+00 0.0000e+00 -1.0000e+00
       23  2    1    2    0    0 +7.3819145614e+00 +3.8590602693e+01 -3.2656085071e+01 1.0496247795e+02 9.1689555607e+01 0.0000e+00 0.0000e+00
       25  2    1    2    0    0 -7.3819145614e+00 -3.8590602693e+01 +3.2656085071e+01 1.3503752205e+02 1.2499994076e+02 0.0000e+00 0.0000e+00
      -13  1    3    3    0    0 +1.0508471678e+01 +1.4387093689e+01 -6.3316393056e+01 6.5775239045e+01 0.0000000000e+00 0.0000e+00 -1.0000e+00
       13  1    3    3    0    0 -3.1265571170e+00 +2.4203509004e+01 +3.0660307986e+01 3.9187238909e+01 0.0000000000e+00 0.0000e+00 1.0000e+00
        5  1    4    4  501    0 -2.7075779499e+01 -1.8801101700e+01 +7.9956863085e-01 3.3306284251e+01 4.7000000000e+00 0.0000e+00 1.0000e+00
       -5  1    4    4    0  502 +4.0098510240e+01 -4.4420860002e+00 +1.4234099386e+01 4.3038613324e+01 4.7000000000e+00 0.0000e+00 -1.0000e+00
        5  1    4    4  502    0 +1.5248761518e+01 -9.3293862440e+00 +1.1363250014e+01 2.1697364504e+01 4.7000000000e+00 0.0000e+00 -1.0000e+00
       -5  1    4    4    0  501 -3.5653406821e+01 -6.0180287489e+00 +6.2591670398e+00 3.6995259967e+01 4.7000000000e+00 0.0000e+00 1.0000e+00
</event>
<event>
10      1 +4.6527485e-10 2.40000000e+02 7.81860800e-03 1.03012300e-01
      -11 -1    0    0    0    0 +0.0000000000e+00 +0.0000000000e+00 +1.2000000000e+02 1.2000000000e+02 0.0000000000e+00 0.0000e+00 1.0000e+00
       11 -1    0    0    0    0 -0.0000000000e+00 -0.0000000000e+00 -1.2000000000e+02 1.2000000000e+02 0.0000000000e+00 0.0000e+00 -1.0000e+00
       23  2    1    2    0    0 +1.3681012850e+00 -4.8716022182e+01 +7.9135225078e+00 1.0560143354e+02 9.3348360506e+01 0.0000e+00 0.0000e+00
       25  2    1    2    0    0 -1.3681012850e+00 +4.8716022182e+01 -7.9135225078e+00 1.3439856646e+02 1.2500091323e+02 0.0000e+00 0.0000e+00
      -11  1    3    3    0    0 +2.9395746814e+01 -5.7154124045e+01 +2.7996838816e+01 7.0103686136e+01 0.0000000000e+00 0.0000e+00 1.0000e+00
       11  1    3    3    0    0 -2.8027645529e+01 +8.4381018637e+00 -2.0083316308e+01 3.5497747406e+01 0.0000000000e+00 0.0000e+00 -1.0000e+00
        5  1    4    4  501    0 -3.6163918875e+01 +3.2162210791e+01 -4.3512440206e+01 6.5250741636e+01 4.7000000000e+00 0.0000e+00 -1.0000e+00
       -5  1    4    4    0  502 +2.6549563445e+01 +2.1244458867e+01 +3.2476131898e+01 4.7254581732e+01 4.7000000000e+00 0.0000e+00 1.0000e+00
        5  1    4    4  502    0 +5.3239221138e+00 -2.0519180652e+00 +1.0156830557e+01 1.2562074725e+01 4.7000000000e+00 0.0000e+00 1.0000e+00
       -5  1    4    4    0  501 +2.9223320321e+00 -2.6387294105e+00 -7.0340447575e+00 9.3311683651e+00 4.7000000000e+00 0.0000e+00 -1.0000e+00
</event>
<event>
10      1 +4.6527485e-10 2.40000000e+02 7.81860800e-03 1.03012300e-01
      -11 -1    0    0    0    0 +0.0000000000e+00 +0.0000000000e+00 +1.2000000000e+02 1.2000000000e+02 0.0000000000e+00 0.0000e+00 -1.0000e+00
       11 -1    0    0    0    0 -0.0000000000e+00 -0.0000000000e+00 -1.2000000000e+02 1.2000000000e+02 0.0000000000e+00 0.0000e+00 1.0000e+00
       23  2    1    2    0    0 -4.9327616584e+01 +5.4240964039e+00 +1.2854169436e+01 1.0489674860e+02 9.1517559050e+01 0.0000e+00 0.0000e+00
       25  2    1    2    0    0 +4.9327616584e+01 -5.4240964039e+00 -1.2854169436e+01 1.3510325140e+02 1.2500009715e+02 0.0000e+00 0.0000e+00
      -13  1    3    3    0    0 -2.1011498628e+00 +1.5208915109e+01 -3.4217200201e+01 3.7503902718e+01 0.0000000000e+00 0.0000e+00 1.0000e+00
       13  1    3    3    0    0 -4.7226466721e+01 -9.7848187053e+00 +4.7071369636e+01 6.7392845878e+01 0.0000000000e+00 0.0000e+00 -1.0000e+00
        5  1    4    4  501    0 +1.3832443058e+01 -8.5789604765e-01 +7.2602127508e+00 1.6336252807e+01 4.7000000000e+00 0.0000e+00 -1.0000e+00
       -5  1    4    4    0  502 -4.3535617526e+00 +1.8146735979e+01 -7.3717499345e+00 2.0608013580e+01 4.7000000000e+00 0.0000e+00 -1.0000e+00
        5  1    4    4  502    0 -8.9515348138e+00 -3.7239644885e+01 -2.4477954296e+01 4.5696623214e+01 4.7000000000e+00 0.0000e+00 -1.0000e+00
       -5  1    4    4    0  501 +4.8800270093e+01 +1.4526708549e+01 +1.1735322044e+01 5.2462361802e+01 4.7000000000e+00 0.0000e+00 -1.0000e+00
</event>
<event>
10      1 +4.6527485e-10 2.40000000e+02 7.81860800e-03 1.03012300e-01
      -11 -1    0    0    0    0 +0.0000000000e+00 +0.0000000000e+00 +1.2000000000e+02 1.2000000000e+02 0.0000000000e+00 0.0000e+00 1.0000e+00
       11 -1    0    0    0    0 -0.0000000000e+00 -0.0000000000e+00 -1.2000000000e+02 1.2000000000e+02 0.0000000000e+00 0.0000e+00 -1.0000e+00
       23  2    1    2    0    0 -5.6731366431e+01 -7.4834819731e+00 -2.4721528689e+01 1.0032107195e+02 7.8604790295e+01 0.0000e+00 0.0000e+00
       25  2    1    2    0    0 +5.6731366431e+01 +7.4834819731e+00 +2.4721528689e+01 1.3967892805e+02 1.2499839407e+02 0.0000e+00 0.0000e+00
      -11  1    3    3    0    0 -2.7874178425e+01 +3.0856284984e-01 -5.2547163322e+01 5.9483354033e+01 0.0000000000e+00 0.0000e+00 -1.0000e+00
       11  1    3    3    0    0 -2.8857188006e+01 -7.7920448230e+00 +2.7825634632e+01 4.0837717919e+01 0.0000000000e+00 0.0000e+00 1.0000e+00
        5  1    4    4  501    0 -3.6804912589e+00 +1.1969415955e+01 -2.5434024231e+00 1.3615132393e+01 4.7000000000e+00 0.0000e+00 -1.0000e+00
       -5  1    4    4    0  501 +1.2418941238e+01 +3.5738857366e+01 -2.0910187859e+01 4.3483582921e+01 4.7000000000e+00 0.0000e+00 -1.0000e+00
        5  1    4    4  502    0 +2.1350806117e+01 -4.6925614742e+00 +1.4538242013e+01 2.6670724322e+01 4.7000000000e+00 0.0000e+00 1.0000e+00
       -5  1    4    4    0  502 +2.6642110335e+01 -3.5532229873e+01 +3.3636876959e+01 5.5909488412e+01 4.7000000000e+00 0.0000e+00 1.0000e+00
</event>
<event>
10      1 +4.6527485e-10 2.40000000e+02 7.81860800e-03 1.03012300e-01
      -11 -1    0    0    0    0 +0.0000000000e+00 +0.0000000000e+00 +1.2000000000e+02 1.2000000000e+02 0.0000000000e+00 0.0000e+00 1.0000e+00
       11 -1    0    0    0    0 -0.0000000000e+00 -0.0000000000e+00 -1.2000000000e+02 1.2000000000e+02 0.0000000000e+00 0.0000e+00 -1.0000e+00
       23  2    1    2    0    0 +3.4631823132e+01 -1.6073435143e+01 -3.1009603576e+01 1.0567057217e+02 9.3525161417e+01 0.0000e+00 0.0000e+00
       25  2    1    2    0    0 -3.4631823132e+01 +1.6073435143e+01 +3.1009603576e+01 1.3432942783e+02 1.2500032471e+02 0.0000e+00 0.0000e+00
      -11  1    3    3    0    0 -3.2211764656e+01 -2.5010925234e+00 -5.1053641501e+00 3.2709600872e+01 0.0000000000e+00 0.0000e+00 1.0000e+00
       11  1    3    3    0    0 +6.6843587788e+01 -1.3572342620e+01 -2.5904239426e+01 7.2960971298e+01 0.0000000000e+00 0.0000e+00 -1.0000e+00
        5  1    4    4  501    0 -1.1427601301e+01 +2.4815393486e+01 -5.9456724548e+00 2.8351981347e+01 4.7000000000e+00 0.0000e+00 -1.0000e+00
       -5  1    4    4    0  502 +3.7522465931e-01 -1.9382072728e+01 +3.1807972940e+01 3.7545208473e+01 4.7000000000e+00 0.0000e+00 1.0000e+00
        5  1    4    4  502    0 -1.4373387036e+01 -8.8912183413e+00 +3.0262557352e+01 3.4979428182e+01 4.7000000000e+00 0.0000e+00 1.0000e+00
       -5  1    4    4    0  501 -9.2060594540e+00 +1.9531332726e+01 -2.5115254261e+01 3.3452809827e+01 4.7000000000e+00 0.0000e+00 -1.0000e+00
</event>
<event>
10      1 +4.6527485e-10 2.40000000e+02 7.81860800e-03 1.03012300e-01
      -11 -1    0    0    0    0 +0.0000000000e+00 +0.0000000000e+00 +1.2000000000e+02 1.2000000000e+02 0.0000000000e+00 0.0000e+00 -1.0000e+00
       11 -1    0    0    0    0 -0.0000000000e+00 -0.0000000000e+00 -1.2000000000e+02 1.2000000000e+02 0.0000000000e+00 0.0000e+00 1.0000e+00
       23  2    1    2    0    0 -2.9950170055e+01 +1.5386272636e+00 -4.2443772160e+01 1.0462581276e+02 9.0805874477e+01 0.0000e+00 0.0000e+00
       25  2    1    2    0    0 +2.9950170055e+01 -1.5386272636e+00 +4.2443772160e+01 1.3537418724e+02 1.2500126686e+02 0.0000e+00 0.0000e+00
      -13  1    3    3    0    0 -4.1963941038e+01 -2.2461118163e+01 -5.6866631321e+01 7.4157183970e+01 0.0000000000e+00 0.0000e+00 1.0000e+00
       13  1    3    3    0    0 +1.2013770983e+01 +2.3999745426e+01 +1.4422859161e+01 3.0468628786e+01 0.0000000000e+00 0.0000e+00 -1.0000e+00
        5  1    4    4  501    0 +1.1173427724e+01 +6.4099850689e+00 +5.6669747117e+00 1.4837048159e+01 4.7000000000e+00 0.0000e+00 -1.0000e+00
       -5  1    4    4    0  502 -1.2552589558e+01 -1.7295006827e+01 +1.5363547395e+01 2.6735993611e+01 4.7000000000e+00 0.0000e+00 -1.0000e+00
        5  1    4    4  502    0 +1.7373419173e-01 -2.7468994711e+01 +3.3778300583e+01 4.3790860283e+01 4.7000000000e+00 0.0000e+00 -1.0000e+00
       -5  1    4    4    0  501 +3.1155597698e+01 +3.6815389206e+01 -1.2365050530e+01 5.0010285191e+01 4.7000000000e+00 0.0000e+00 1.0000e+00
</event>
<event>
10      1 +4.6527485e-10 2.40000000e+02 7.81860800e-03 1.03012300e-01
      -11 -1    0    0    0    0 +0.0000000000e+00 +0.0000000000e+00 +1.2000000000e+02 1.2000000000e+02 0.0000000000e+00 0.0000e+00 1.0000e+00
       11 -1    0    0    0    0 -0.0000000000e+00 -0.0000000000e+00 -1.2000000000e+02 1.2000000000e+02 0.0000000000e+00 0.0000e+00 -1.0000e+00
       23  2    1    2    0    0 +1.9985821076e+01 -3.6094792634e+01 -3.0299463119e+01 1.0492532653e+02 9.1591482038e+01 0.0000e+00 0.0000e+00
       25  2    1    2    0    0 -1.9985821076e+01 +3.6094792634e+01 +3.0299463119e+01 1.3507467347e+02 1.2499937140e+02 0.0000e+00 0.0000e+00
      -13  1    3    3    0    0 +2.9707339939e+00 +3.0964359157e+01 -1.2194929886e+01 3.3411571549e+01 0.0000000000e+00 0.0000e+00 1.0000e+00
       13  1    3    3    0    0 +1.7015087082e+01 -6.7059151791e+01 -1.8104533233e+01 7.1513754977e+01 0.0000000000e+00 0.0000e+00 -1.0000e+00
        5  1    4    4  501    0 -4.2098803225e+00 -2.6119351683e+00 +6.8006761829e+00 9.6376602035e+00 4.7000000000e+00 0.0000e+00 -1.0000e+00
       -5  1    4    4    0  501 -4.7104807026e+01 +5.9330245334e+01 +3.0844911433e+01 8.1929478319e+01 4.7000000000e+00 0.0000e+00 -1.0000e+00
        5  1    4    4  502    0 +9.7336940900e+00 -1.6083064745e+01 +1.1175245659e+00 1.9410013740e+01 4.7000000000e+00 0.0000e+00 1.0000e+00
       -5  1    4    4    0  502 +2.1595172183e+01 -4.5404527864e+00 -8.4636490628e+00 2.4097521212e+01 4.7000000000e+00 0.0000e+00 1.0000e+00
</event>
<event>
10      1 +4.6527485e-10 2.40000000e+02 7.81860800e-03 1.03012300e-01
      -11 -1    0    0    0    0 +0.0000000000e+00 +0.0000000000e+00 +1.2000000000e+02 1.2000000000e+02 0.0000000000e+00 0.0000e+00 1.0000e+00
       11 -1    0    0    0    0 -0.0000000000e+00 -0.0000000000e+00 -1.2000000000e+02 1.2000000000e+02 0.0000000000e+00 0.0000e+00 -1.0000e+00
       23  2    1    2    0    0 -4.1873590169e+01 +6.0833025523e+01 +1.4565137574e+01 9.4086873071e+01 5.6445920170e+01 0.0000e+00 0.0000e+00
       25  2    1    2    0    0 +4.1873590169e+01 -6.0833025523e+01 -1.4565137574e+01 1.4591312693e+02 1.2499777130e+02 0.0000e+00 0.0000e+00
      -11  1    3    3    0    0 -2.2781985289e+01 +5.5866176295e+01 -1.1478812121e+01 6.1415076612e+01 0.0000000000e+00 0.0000e+00 -1.0000e+00
       11  1    3    3    0    0 -1.9091604880e+01 +4.9668492279e+00 +2.6043949695e+01 3.2671796460e+01 0.0000000000e+00 0.0000e+00 1.0000e+00
        5  1    4    4  501    0 +3.1759759587e+01 -1.7916637418e+00 -3.6743255075e+01 4.8826726098e+01 4.7000000000e+00 0.0000e+00 1.0000e+00
       -5  1    4    4    0  501 +3.0369050961e+00 +5.9623041941e+00 -1.5906774177e+01 1.7885394281e+01 4.7000000000e+00 0.0000e+00 -1.0000e+00
        5  1    4    4  502    0 +9.7136164219e+00 -5.9667843595e+01 +3.8109460866e+01 7.1617224959e+01 4.7000000000e+00 0.0000e+00 1.0000e+00
       -5  1    4    4    0  502 -2.6366909360e+00 -5.3358223796e+00 -2.4569187981e-02 7.5837815899e+00 4.7000000000e+00 0.0000e+00 1.0000e+00
</event>
<event>
10      1 +4.6527485e-10 2.40000000e+02 7.81860800e-03 1.03012300e-01
      -11 -1    0    0    0    0 +0.0000000000e+00 +0.0000000000e+00 +1.2000000000e+02 1.2000000000e+02 0.0000000000e+00 0.0000e+00 1.0000e+00
       11 -1    0    0    0    0 -0.0000000000e+00 -0.0000000000e+00 -1.2000000000e+02 1.2000000000e+02 0.0000000000e+00 0.0000e+00 -1.0000e+00
       23  2    1    2    0    0 -3.0833018041e+01 +1.1847604675e+00 -4.1277654684e+01 1.0479420885e+02 9.1246384990e+01 0.0000e+00 0.0000e+00
       25  2    1    2    0    0 +3.0833018041e+01 -1.1847604675e+00 +4.1277654684e+01 1.3520579115e+02 1.2499873009e+02 0.0000e+00 0.0000e+00
      -11  1    3    3    0    0 -1.2763580727e+01 -7.3848154044e+00 -6.9029745087e+01 7.0587181544e+01 0.0000000000e+00 0.0000e+00 -1.0000e+00
       11  1    3    3    0    0 -1.8069437314e+01 +8.5695758719e+00 +2.7752090403e+01 3.4207027308e+01 0.0000000000e+00 0.0000e+00 1.0000e+00
        5  1    4    4  501    0 +1.0848398369e+01 +3.8571483921e+01 +6.1116290618e+01 7.3230718268e+01 4.7000000000e+00 0.0000e+00 -1.0000e+00
       -5  1    4    4    0  501 +2.1085444207e+00 +1.1215418433e+00 +4.6229571925e+00 7.0118149494e+00 4.7000000000e+00 0.0000e+00 1.0000e+00
        5  1    4    4  502    0 +1.7285144874e+01 -2.2995459981e+01 -8.0662782016e+00 3.0244375627e+01 4.7000000000e+00 0.0000e+00 -1.0000e+00
       -5  1    4    4    0  502 +5.9093037754e-01 -1.7882326251e+01 -1.6395314925e+01 2.4718882304e+01 4.7000000000e+00 0.0000e+00 -1.0000e+00
</event>
<event>
10      1 +4.6527485e-10 2.40000000e+02 7.81860800e-03 1.03012300e-01
      -11 -1    0    0    0    0 +0.0000000000e+00 +0.0000000000e+00 +1.2000000000e+02 1.2000000000e+02 0.0000000000e+00 0.0000e+00 1.0000e+00
       11 -1    0    0    0    0 -0.0000000000e+00 -0.0000000000e+00 -1.2000000000e+02 1.2000000000e+02 0.0000000000e+00 0.0000e+00 -1.0000e+00
       23  2    1    2    0    0 +1.2000556007e+01 -4.8281276933e+01 +2.7859393590e+01 1.0261128383e+02 8.5310226300e+01 0.0000e+00 0.0000e+00
       25  2    1    2    0    0 -1.2000556007e+01 +4.8281276933e+01 -2.7859393590e+01 1.3738871617e+02 1.2499767387e+02 0.0000e+00 0.0000e+00
      -11  1    3    3    0    0 +4.0040316191e+01 -1.0384799623e+01 -9.5221291437e+00 4.2446930717e+01 0.0000000000e+00 0.0000e+00 -1.0000e+00
       11  1    3    3    0    0 -2.8039760184e+01 -3.7896477309e+01 +3.7381522734e+01 6.0164353113e+01 0.0000000000e+00 0.0000e+00 1.0000e+00
        5  1    4    4  501    0 -2.8027558921e+00 -4.1286480920e+00 -2.0391875673e+01 2.1513246364e+01 4.7000000000e+00 0.0000e+00 1.0000e+00
       -5  1    4    4    0  502 +1.1736355709e+01 +6.6997655871e-01 +1.5831725909e+00 1.2758814576e+01 4.7000000000e+00 0.0000e+00 -1.0000e+00
        5  1    4    4  502    0 +1.0053497065e+01 +3.6206029828e+01 +3.1718531595e+01 4.9397415374e+01 4.7000000000e+00 0.0000e+00 -1.0000e+00
       -5  1    4    4    0  501 -3.0987652889e+01 +1.5533918638e+01 -4.0769222104e+01 5.3719239856e+01 4.7000000000e+00 0.0000e+00 1.0000e+00
</event>
<event>
10      1 +4.6527485e-10 2.40000000e+02 7.81860800e-03 1.03012300e-01
      -11 -1    0    0    0    0 +0.0000000000e+00 +0.0000000000e+00 +1.2000000000e+02 1.2000000000e+02 0.0000000000e+00 0.0000e+00 1.0000e+00
       11 -1    0    0    0    0 -0.0000000000e+00 -0.0000000000e+00 -1.2000000000e+02 1.2000000000e+02 0.0000000000e+00 0.0000e+00 -1.0000e+00
       23  2    1    2    0    0 +4.6852711661e+01 +2.0810662300e+01 -6.5741245800e+00 1.0471061378e+02 9.1064994754e+01 0.0000e+00 0.0000e+00
       25  2    1    2    0    0 -4.6852711661e+01 -2.0810662300e+01 +6.5741245800e+00 1.3528938622e+02 1.2502695171e+02 0.0000e+00 0.0000e+00
      -11  1    3    3    0    0 +5.5910225200e+01 +8.5920488265e+00 +3.0765793355e+01 6.4391852169e+01 0.0000000000e+00 0.0000e+00 1.0000e+00
       11  1    3    3    0    0 -9.0575135388e+00 +1.2218613474e+01 -3.7339917935e+01 4.0318761614e+01 0.0000000000e+00 0.0000e+00 -1.0000e+00
        5  1    4    4  501    0 -5.6505710763e+00 +2.6636964469e+00 +9.1567772516e+00 1.2039966856e+01 4.7000000000e+00 0.0000e+00 -1.0000e+00
       -5  1    4    4    0  502 -2.9734474245e+01 -3.5594462193e+01 -4.0326232532e+01 6.1639270986e+01 4.7000000000e+00 0.0000e+00 -1.0000e+00
        5  1    4    4  502    0 -4.3941378368e+00 -1.1293782999e+01 -3.4718324878e+00 1.3453683606e+01 4.7000000000e+00 0.0000e+00 -1.0000e+00
       -5  1    4    4    0  501 -7.0735285030e+00 +2.3413886445e+01 +4.1215412348e+01 4.8156464768e+01 4.7000000000e+00 0.0000e+00 -1.0000e+00
</event>
<event>
10      1 +4.6527485e-10 2.40000000e+02 7.81860800e-03 1.03012300e-01
      -11 -1    0    0    0    0 +0.0000000000e+00 +0.0000000000e+00 +1.2000000000e+02 1.2000000000e+02 0.0000000000e+00 0.0000e+00 -1.0000e+00
       11 -1    0    0    0    0 -0.0000000000e+00 -0.0000000000e+00 -1.2000000000e+02 1.2000000000e+02 0.0000000000e+00 0.0000e+00 1.0000e+00
       23  2    1    2    0    0 -1.8161785293e+01 +4.4090107201e+00 -4.9658763657e+01 1.0420318881e+02 8.9682896532e+01 0.0000e+00 0.0000e+00
       25  2    1    2    0    0 +1.8161785293e+01 -4.4090107201e+00 +4.9658763657e+01 1.3579681119e+02 1.2500196518e+02 0.0000e+00 0.0000e+00
      -13  1    3    3    0    0 -3.5255867650e+01 -3.3270987595e+01 -3.6842137379e+01 6.0887419931e+01 0.0000000000e+00 0.0000e+00 1.0000e+00
       13  1    3    3    0    0 +1.7094082356e+01 +3.7679998315e+01 -1.2816626278e+01 4.3315768882e+01 0.0000000000e+00 0.0000e+00 -1.0000e+00
        5  1    4    4  501    0 +9.8915872266e+00 +1.6092863008e+01 +1.9631015458e+01 2.7645804484e+01 4.7000000000e+00 0.0000e+00 1.0000e+00
       -5  1    4    4    0  501 +2.0371449241e+01 +3.5878130714e+01 +7.7865082640e+00 4.2248738664e+01 4.7000000000e+00 0.0000e+00 1.0000e+00
        5  1    4    4  502    0 -1.1991273866e+01 -5.4078944169e+01 +2.3754010698e+01 6.0453832597e+01 4.7000000000e+00 0.0000e+00 1.0000e+00
       -5  1    4    4    0  502 -1.0997730805e-01 -2.3010602731e+00 -1.5127707637e+00 5.4484354426e+00 4.7000000000e+00 0.0000e+00 -1.0000e+00
</event>
<event>
10      1 +4.6527485e-10 2.40000000e+02 7.81860800e-03 1.03012300e-01
      -11 -1    0    0    0    0 +0.0000000000e+00 +0.0000000000e+00 +1.2000000000e+02 1.2000000000e+02 0.0000000000e+00 0.0000e+00 -1.0000e+00
       11 -1    0    0    0    0 -0.0000000000e+00 -0.0000000000e+00 -1.2000000000e+02 1.2000000000e+02 0.0000000000e+00 0.0000e+00 1.0000e+00
       23  2    1    2    0    0 +5.1614266719e+00 +2.8237905821e+01 +4.4866912124e+01 1.0412526619e+02 8.9470730442e+01 0.0000e+00 0.0000e+00
       25  2    1    2    0    0 -5.1614266719e+00 -2.8237905821e+01 -4.4866912124e+01 1.3587473381e+02 1.2499953533e+02 0.0000e+00 0.0000e+00
      -11  1    3    3    0    0 +3.1294221815e+01 +4.7290469572e+01 +1.1897602814e+01 5.7941951849e+01 0.0000000000e+00 0.0000e+00 1.0000e+00
       11  1    3    3    0    0 -2.6132795143e+01 -1.9052563751e+01 +3.2969309310e+01 4.6183314344e+01 0.0000000000e+00 0.0000e+00 -1.0000e+00
        5  1    4    4  501    0 -8.7875519723e+00 -7.0102547329e+00 +3.0566762122e+00 1.2561767812e+01 4.7000000000e+00 0.0000e+00 1.0000e+00
       -5  1    4    4    0  501 -1.3294596269e+01 -4.0438668919e+01 +2.0944498343e+01 4.7673831866e+01 4.7000000000e+00 0.0000e+00 1.0000e+00
        5  1    4    4  502    0 +1.8957309351e+01 +1.5311947107e+01 -5.5878427804e+01 6.1141835071e+01 4.7000000000e+00 0.0000e+00 -1.0000e+00
       -5  1    4    4    0  502 -2.0365877824e+00 +3.8990707246e+00 -1.2989658875e+01 1.4497299059e+01 4.7000000000e+00 0.0000e+00 -1.0000e+00
</event>
<event>
10      1 +4.6527485e-10 2.40000000e+02 7.81860800e-03 1.03012300e-01
      -11 -1    0    0    0    0 +0.0000000000e+00 +0.0000000000e+00 +1.2000000000e+02 1.2000000000e+02 0.0000000000e+00 0.0000e+00 1.0000e+00
       11 -1    0    0    0    0 -0.0000000000e+00 -0.0000000000e+00 -1.2000000000e+02 1.2000000000e+02 0.0000000000e+00 0.0000e+00 -1.0000e+00
       23  2    1    2    0    0 +1.2588056595e+01 -8.6879791920e+00 -4.9760199646e+01 1.0459335295e+02 9.0717979812e+01 0.0000e+00 0.0000e+00
       25  2    1    2    0    0 -1.2588056595e+01 +8.6879791920e+00 +4.9760199646e+01 1.3540664705e+02 1.2499976978e+02 0.0000e+00 0.0000e+00
      -11  1    3    3    0    0 +1.1231953027e+01 +1.7327155681e+01 -6.9118911054e+01 7.2137444910e+01 0.0000000000e+00 0.0000e+00 -1.0000e+00
       11  1    3    3    0    0 +1.3561035679e+00 -2.6015134873e+01 +1.9358711408e+01 3.2455908040e+01 0.0000000000e+00 0.0000e+00 1.0000e+00
        5  1    4    4  501    0 +4.4142403343e+00 +1.7372214987e+01 +8.3834130888e+00 2.0338411597e+01 4.7000000000e+00 0.0000e+00 -1.0000e+00
       -5  1    4    4    0  501 +3.5807906079e+01 +2.1665694257e+01 +2.4666131993e+01 4.8806930993e+01 4.7000000000e+00 0.0000e+00 -1.0000e+00
        5  1    4    4  502    0 -3.6841057695e+01 -2.6410821668e+01 +5.7241261905e+00 4.5930933519e+01 4.7000000000e+00 0.0000e+00 -1.0000e+00
       -5  1    4    4    0  502 -1.5969145313e+01 -3.9391083845e+00 +1.0986528374e+01 2.0330370941e+01 4.7000000000e+00 0.0000e+00 -1.0000e+00
</event>
<event>
10      1 +4.6527485e-10 2.40000000e+02 7.81860800e-03 1.03012300e-01
      -11 -1    0    0    0    0 +0.0000000000e+00 +0.0000000000e+00 +1.2000000000e+02 1.2000000000e+02 0.0000000000e+00 0.0000e+00 1.0000e+00
       11 -1    0    0    0    0 -0.0000000000e+00 -0.0000000000e+00 -1.2000000000e+02 1.2000000000e+02 0.0000000000e+00 0.0000e+00 -1.0000e+00
       23  2    1    2    0    0 -4.6998976528e+01 +1.9238164086e+01 -1.1774701843e+01 1.0456580682e+02 9.0644104054e+01 0.0000e+00 0.0000e+00
       25  2    1    2    0    0 +4.6998976528e+01 -1.9238164086e+01 +1.1774701843e+01 1.3543419318e+02 1.2499906531e+02 0.0000e+00 0.0000e+00
      -11  1    3    3    0    0 -5.3299536714e+01 +1.2171638749e+01 +2.9566508628e+01 6.2154387103e+01 0.0000000000e+00 0.0000e+00 1.0000e+00
       11  1    3    3    0    0 +6.3005601861e+00 +7.0665253371e+00 -4.1341210470e+01 4.2411419714e+01 0.0000000000e+00 0.0000e+00 -1.0000e+00
        5  1    4    4  501    0 +4.0212791360e+01 -2.7583900139e+01 -1.5533041623e+01 5.1393633048e+01 4.7000000000e+00 0.0000e+00 -1.0000e+00
       -5  1    4    4    0  501 +3.3563005749e+01 -5.1876603621e-01 -6.6966580312e+00 3.4549670069e+01 4.7000000000e+00 0.0000e+00 -1.0000e+00
        5  1    4    4  502    0 -2.8403324224e+01 +5.4446720047e+00 +2.4313285631e+01 3.8073864243e+01 4.7000000000e+00 0.0000e+00 -1.0000e+00
       -5  1    4    4    0  502 +1.6265036434e+00 +3.4198300846e+00 +9.6911158662e+00 1.1417025823e+01 4.7000000000e+00 0.0000e+00 -1.0000e+00
</event>
<event>
10      1 +4.6527485e-10 2.40000000e+02 7.81860800e-03 1.03012300e-01
      -11 -1    0    0    0    0 +0.0000000000e+00 +0.0000000000e+00 +1.2000000000e+02 1.2000000000e+02 0.0000000000e+00 0.0000e+00 1.0000e+00
       11 -1    0    0    0    0 -0.0000000000e+00 -0.0000000000e+00 -1.2000000000e+02 1.2000000000e+02 0.0000000000e+00 0.0000e+00 -1.0000e+00
       23  2    1    2    0    0 -4.8708094633e+00 -1.2187993692e+01 +4.7840841881e+01 1.0552244336e+02 9.3134139420e+01 0.0000e+00 0.0000e+00
       25  2    1    2    0    0 +4.8708094633e+00 +1.2187993692e+01 -4.7840841881e+01 1.3447755664e+02 1.2499278024e+02 0.0000e+00 0.0000e+00
      -11  1    3    3    0    0 -2.0694039595e+01 +3.6122655656e+01 +3.1227116840e+01 5.2040583707e+01 0.0000000000e+00 0.0000e+00 1.0000e+00
       11  1    3    3    0    0 +1.5823230132e+01 -4.8310649347e+01 +1.6613725041e+01 5.3481859653e+01 0.0000000000e+00 0.0000e+00 -1.0000e+00
        5  1    4    4  501    0 -1.5734159442e+01 +8.0484648230e-01 -5.5847853955e+01 5.8217560431e+01 4.7000000000e+00 0.0000e+00 1.0000e+00
       -5  1    4    4    0  501 +4.4926379410e+00 +3.2583454083e+00 -2.6307242600e+01 2.7293985119e+01 4.7000000000e+00 0.0000e+00 1.0000e+00
        5  1    4    4  502    0 +1.2860484451e+01 -6.1349748612e+00 +2.9104244040e+01 3.2744113944e+01 4.7000000000e+00 0.0000e+00 -1.0000e+00
       -5  1    4    4    0  502 +3.2518465129e+00 +1.4259776663e+01 +5.2100106342e+00 1.6221897146e+01 4.7000000000e+00 0.0000e+00 -1.0000e+00
</event>
<event>
10      1 +4.6527485e-10 2.40000000e+02 7.81860800e-03 1.03012300e-01
      -11 -1    0    0    0    0 +0.0000000000e+00 +0.0000000000e+00 +1.2000000000e+02 1.2000000000e+02 0.0000000000e+00 0.0000e+00 -1.0000e+00
       11 -1    0    0    0    0 -0.0000000000e+00 -0.0000000000e+00 -1.2000000000e+02 1.2000000000e+02 0.0000000000e+00 0.0000e+00 1.0000e+00
       23  2    1    2    0    0 +4.0697419996e+01 +2.2967372449e+01 -2.0449227550e+01 1.0499242713e+02 9.1768505798e+01 0.0000e+00 0.0000e+00
       25  2    1    2    0    0 -4.0697419996e+01 -2.2967372449e+01 +2.0449227550e+01 1.3500757287e+02 1.2500037453e+02 0.0000e+00 0.0000e+00
      -13  1    3    3    0    0 -1.6811799839e+01 +3.0766203576e+01 +1.3715673451e+01 3.7647252151e+01 0.0000000000e+00 0.0000e+00 -1.0000e+00
       13  1    3    3    0    0 +5.7509219835e+01 -7.7988311264e+00 -3.4164901001e+01 6.7345174983e+01 0.0000000000e+00 0.0000e+00 1.0000e+00
        5  1    4    4  501    0 -1.1486767839e+01 -1.9073751191e+01 -1.7723044843e+01 2.8843545871e+01 4.7000000000e+00 0.0000e+00 1.0000e+00
       -5  1    4    4    0  502 -5.8007117245e+00 +5.0179473109e+00 +5.2801878800e+01 5.3562640493e+01 4.7000000000e+00 0.0000e+00 1.0000e+00
        5  1    4    4  502    0 +5.6901376942e+00 +1.4361572111e+00 +1.0216637385e+01 1.2685026368e+01 4.7000000000e+00 0.0000e+00 1.0000e+00
       -5  1    4    4    0  501 -2.9100078127e+01 -1.0347725780e+01 -2.4846243792e+01 3.9916360135e+01 4.7000000000e+00 0.0000e+00 1.0000e+00
</event>
<event>
10      1 +4.6527485e-10 2.40000000e+02 7.81860800e-03 1.03012300e-01
      -11 -1    0    0    0    0 +0.0000000000e+00 +0.0000000000e+00 +1.2000000000e+02 1.2000000000e+02 0.0000000000e+00 0.0000e+00 -1.0000e+00
       11 -1    0    0    0    0 -0.0000000000e+00 -0.0000000000e+00 -1.2000000000e+02 1.2000000000e+02 0.0000000000e+00 0.0000e+00 1.0000e+00
       23  2    1    2    0    0 +3.5373038676e+01 -3.6523047736e+01 -5.1060081785e+00 1.0495898520e+02 9.1679509017e+01 0.0000e+00 0.0000e+00
       25  2    1    2    0    0 -3.5373038676e+01 +3.6523047736e+01 +5.1060081785e+00 1.3504101480e+02 1.2499927791e+02 0.0000e+00 0.0000e+00
      -13  1    3    3    0    0 -2.7563510662e+00 -5.2789613212e+01 +1.9972972949e+01 5.6508940733e+01 0.0000000000e+00 0.0000e+00 -1.0000e+00
       13  1    3    3    0    0 +3.8129389742e+01 +1.6266565476e+01 -2.5078981127e+01 4.8450044467e+01 0.0000000000e+00 0.0000e+00 1.0000e+00
        5  1    4    4  501    0 -2.2463758879e+01 +7.9830179013e+00 -4.0361248344e+01 4.7111245002e+01 4.7000000000e+00 0.0000e+00 1.0000e+00
       -5  1    4    4    0  502 -9.3680601892e-01 +1.5537156121e+01 +4.9403898768e+01 5.2010730040e+01 4.7000000000e+00 0.0000e+00 -1.0000e+00
        5  1    4    4  502    0 +5.2983811112e+00 +1.1089992963e+00 +8.4762839307e+00 1.1101356274e+01 4.7000000000e+00 0.0000e+00 -1.0000e+00
       -5  1    4    4    0  501 -1.7270854889e+01 +1.1893874417e+01 -1.2412926176e+01 2.4817683484e+01 4.7000000000e+00 0.0000e+00 1.0000e+00
</event>
<event>
10      1 +4.6527485e-10 2.40000000e+02 7.81860800e-03 1.03012300e-01
      -11 -1    0    0    0    0 +0.0000000000e+00 +0.0000000000e+00 +1.2000000000e+02 1.2000000000e+02 0.0000000000e+00 0.0000e+00 1.0000e+00
       11 -1    0    0    0    0 -0.0000000000e+00 -0.0000000000e+00 -1.2000000000e+02 1.2000000000e+02 0.0000000000e+00 0.0000e+00 -1.0000e+00
       23  2    1    2    0    0 +4.7265301364e+00 +4.9858974463e+01 +1.5022643825e+01 1.0450213180e+02 9.0480706788e+01 0.0000e+00 0.0000e+00
       25  2    1    2    0    0 -4.7265301364e+00 -4.9858974463e+01 -1.5022643825e+01 1.3549786820e+02 1.2500294012e+02 0.0000e+00 0.0000e+00
      -11  1    3    3    0    0 +3.7201159282e+01 +4.1144789646e+01 +3.4811199067e+01 6.5487705315e+01 0.0000000000e+00 0.0000e+00 1.0000e+00
       11  1    3    3    0    0 -3.2474629145e+01 +8.7141848175e+00 -1.9788555242e+01 3.9014426482e+01 0.0000000000e+00 0.0000e+00 -1.0000e+00
        5  1    4    4  501    0 -5.5065108221e+00 +1.6916110835e+01 -2.1758122308e+01 2.8495304062e+01 4.7000000000e+00 0.0000e+00 1.0000e+00
       -5  1    4    4    0  501 -7.1400432213e+00 +1.7421298236e+01 -8.3786666777e-01 1.9423539070e+01 4.7000000000e+00 0.0000e+00 1.0000e+00
        5  1    4    4  502    0 +2.8148444444e+00 -5.5206463935e+01 +1.3706544477e+01 5.7145746744e+01 4.7000000000e+00 0.0000e+00 -1.0000e+00
       -5  1    4    4    0  502 +5.1051794625e+00 -2.8989919600e+01 -6.1331993265e+00 3.0433278327e+01 4.7000000000e+00 0.0000e+00 -1.0000e+00
</event>
<event>
10      1 +4.6527485e-10 2.40000000e+02 7.81860800e-03 1.03012300e-01
      -11 -1    0    0    0    0 +0.0000000000e+00 +0.0000000000e+00 +1.2000000000e+02 1.2000000000e+02 0.0000000000e+00 0.0000e+00 -1.0000e+00
       11 -1    0    0    0    0 -0.0000000000e+00 -0.0000000000e+00 -1.2000000000e+02 1.2000000000e+02 0.0000000000e+00 0.0000e+00 1.0000e+00
       23  2    1    2    0    0 +3.6575090396e+00 -5.3865663420e+01 -1.6112262346e+01 1.0288942955e+02 8.6091478363e+01 0.0000e+00 0.0000e+00
       25  2    1    2    0    0 -3.6575090396e+00 +5.3865663420e+01 +1.6112262346e+01 1.3711057045e+02 1.2499926585e+02 0.0000e+00 0.0000e+00
      -13  1    3    3    0    0 +2.7568929444e+01 -5.0260903216e+01 -3.9207412075e+01 6.9450884979e+01 0.0000000000e+00 0.0000e+00 1.0000e+00
       13  1    3    3    0    0 -2.3911420404e+01 -3.6047602036e+00 +2.3095149729e+01 3.3438544569e+01 0.0000000000e+00 0.0000e+00 -1.0000e+00
        5  1    4    4  501    0 -1.7904184160e+01 -1.2291634115e+01 -2.8603489092e+01 3.6220072720e+01 4.7000000000e+00 0.0000e+00 1.0000e+00
       -5  1    4    4    0  501 -5.7110236784e+00 +3.8084047092e+00 -3.5533472852e+00 9.0463260395e+00 4.7000000000e+00 0.0000e+00 1.0000e+00
        5  1    4    4  502    0 -3.1378520433e+00 +3.6995802102e+01 +4.2705775070e+01 5.6783877227e+01 4.7000000000e+00 0.0000e+00 1.0000e+00
       -5  1    4    4    0  502 +2.3095550842e+01 +2.5353090724e+01 +5.5633236532e+00 3.5060294465e+01 4.7000000000e+00 0.0000e+00 1.0000e+00
</event>
<event>
10      1 +4.6527485e-10 2.40000000e+02 7.81860800e-03 1.03012300e-01
      -11 -1    0    0    0    0 +0.0000000000e+00 +0.0000000000e+00 +1.2000000000e+02 1.2000000000e+02 0.0000000000e+00 0.0000e+00 1.0000e+00
       11 -1    0    0    0    0 -0.0000000000e+00 -0.0000000000e+00 -1.2000000000e+02 1.2000000000e+02 0.0000000000e+00 0.0000e+00 -1.0000e+00
       23  2    1    2    0    0 +4.9267276726e+01 +2.7268983015e+00 +6.2902663387e+00 1.0546790291e+02 9.3001132051e+01 0.0000e+00 0.0000e+00
       25  2    1    2    0    0 -4.9267276726e+01 -2.7268983015e+00 -6.2902663387e+00 1.3453209709e+02 1.2499846866e+02 0.0000e+00 0.0000e+00
      -13  1    3    3    0    0 +5.9604761192e+01 +9.3736053571e+00 -2.9834069005e+01 6.7310205077e+01 0.0000000000e+00 0.0000e+00 -1.0000e+00
       13  1    3    3    0    0 -1.0337484466e+01 -6.6467070556e+00 +3.6124335343e+01 3.8157697831e+01 0.0000000000e+00 0.0000e+00 1.0000e+00
        5  1    4    4  501    0 -1.4812327795e+00 +4.9140243142e+00 -4.6082555157e+00 8.3467181818e+00 4.7000000000e+00 0.0000e+00 -1.0000e+00
       -5  1    4    4    0  501 +1.2393579187e+01 -5.5027348497e-01 -4.5554091497e+01 4.7446484149e+01 4.7000000000e+00 0.0000e+00 -1.0000e+00
        5  1    4    4  502    0 -1.5523424240e+01 -1.1610135233e+01 +1.7047556375e+01 2.6238923732e+01 4.7000000000e+00 0.0000e+00 -1.0000e+00
       -5  1    4    4    0  502 -4.4656198893e+01 +4.5194861020e+00 +2.6824524299e+01 5.2499971029e+01 4.7000000000e+00 0.0000e+00 -1.0000e+00
</event>
<event>
10      1 +4.6527485e-10 2.40000000e+02 7.81860800e-03 1.03012300e-01
      -11 -1    0    0    0    0 +0.0000000000e+00 +0.0000000000e+00 +1.2000000000e+02 1.2000000000e+02 0.0000000000e+00 0.0000e+00 1.0000e+00
       11 -1    0    0    0    0 -0.0000000000e+00 -0.0000000000e+00 -1.2000000000e+02 1.2000000000e+02 0.0000000000e+00 0.0000e+00 -1.0000e+00
       23  2    1    2    0    0 -2.6490442417e+01 -3.1321833075e+01 -3.2324581966e+01 1.0452935578e+02 9.0546710899e+01 0.0000e+00 0.0000e+00
       25  2    1    2    0    0 +2.6490442417e+01 +3.1321833075e+01 +3.2324581966e+01 1.3547064422e+02 1.2499846431e+02 0.0000e+00 0.0000e+00
      -11  1    3    3    0    0 -3.2479482392e+01 +8.4355699725e+00 +1.9597369127e+01 3.8860423234e+01 0.0000000000e+00 0.0000e+00 1.0000e+00
       11  1    3    3    0    0 +5.9890399752e+00 -3.9757403047e+01 -5.1921951093e+01 6.5668932549e+01 0.0000000000e+00 0.0000e+00 -1.0000e+00
        5  1    4    4  501    0 -3.2883369019e-01 +3.1289107680e+00 +8.3918775469e-01 5.7177312177e+00 4.7000000000e+00 0.0000e+00 -1.0000e+00
       -5  1    4    4    0  501 -2.1770254506e+01 +5.0854429610e+01 -1.1383399937e+01 5.6672645838e+01 4.7000000000e+00 0.0000e+00 1.0000e+00
        5  1    4    4  502    0 +9.6848395696e+00 +2.7995801298e+00 +1.4981803853e+01 1.8659534107e+01 4.7000000000e+00 0.0000e+00 1.0000e+00
       -5  1    4    4    0  502 +3.8904691043e+01 -2.5461087433e+01 +2.7886990296e+01 5.4420733054e+01 4.7000000000e+00 0.0000e+00 1.0000e+00
</event>
<event>
10      1 +4.6527485e-10 2.40000000e+02 7.81860800e-03 1.03012300e-01
      -11 -1    0    0    0    0 +0.0000000000e+00 +0.0000000000e+00 +1.2000000000e+02 1.2000000000e+02 0.0000000000e+00 0.0000e+00 1.0000e+00
       11 -1    0    0    0    0 -0.0000000000e+00 -0.0000000000e+00 -1.2000000000e+02 1.2000000000e+02 0.0000000000e+00 0.0000e+00 -1.0000e+00
       23  2    1    2    0    0 -3.1326007363e+01 -2.9272881410e+01 +3.1532009816e+01 1.0414292878e+02 8.9516823269e+01 0.0000e+00 0.0000e+00
       25  2    1    2    0    0 +3.1326007363e+01 +2.9272881410e+01 -3.1532009816e+01 1.3585707122e+02 1.2499862333e+02 0.0000e+00 0.0000e+00
      -11  1    3    3    0    0 -6.1544489537e+01 -2.0115673467e+01 +3.2717593418e+01 7.2545195778e+01 0.0000000000e+00 0.0000e+00 1.0000e+00
       11  1    3    3    0    0 +3.0218482175e+01 -9.1572079424e+00 -1.1855836024e+00 3.1597733000e+01 0.0000000000e+00 0.0000e+00 -1.0000e+00
        5  1    4    4  501    0 +8.7174467372e+00 +2.4673021635e+01 +1.0428784175e+00 2.6606944012e+01 4.7000000000e+00 0.0000e+00 -1.0000e+00
       -5  1    4    4    0  502 +1.7560803050e+00 -8.1860870993e+00 +2.8224318406e+00 1.0007595192e+01 4.7000000000e+00 0.0000e+00 1.0000e+00
        5  1    4    4  502    0 -8.1022785902e+00 -3.5224023802e+01 -1.3416628164e+01 3.8839087044e+01 4.7000000000e+00 0.0000e+00 1.0000e+00
       -5  1    4    4    0  501 +2.8954758911e+01 +4.8009970676e+01 -2.1980691910e+01 6.0403444974e+01 4.7000000000e+00 0.0000e+00 -1.0000e+00
</event>
<event>
10      1 +4.6527485e-10 2.40000000e+02 7.81860800e-03 1.03012300e-01
      -11 -1    0    0    0    0 +0.0000000000e+00 +0.0000000000e+00 +1.2000000000e+02 1.2000000000e+02 0.0000000000e+00 0.0000e+00 -1.0000e+00
       11 -1    0    0    0    0 -0.0000000000e+00 -0.0000000000e+00 -1.2000000000e+02 1.2000000000e+02 0.0000000000e+00 0.0000e+00 1.0000e+00
       23  2    1    2    0    0 -3.0359177452e+01 +4.1086232036e+01 -8.3180305299e-01 1.0496245274e+02 9.1687875266e+01 0.0000e+00 0.0000e+00
       25  2    1    2    0    0 +3.0359177452e+01 -4.1086232036e+01 +8.3180305299e-01 1.3503754726e+02 1.2499875661e+02 0.0000e+00 0.0000e+00
      -11  1    3    3    0    0 -4.2381070883e+01 +6.1948891394e+01 -1.5672806209e+01 7.6677618433e+01 0.0000000000e+00 0.0000e+00 1.0000e+00
       11  1    3    3    0    0 +1.2021893432e+01 -2.0862659358e+01 +1.4841003156e+01 2.8284834308e+01 0.0000000000e+00 0.0000e+00 -1.0000e+00
        5  1    4    4  501    0 -1.5124040113e+01 -1.8888956499e+01 -4.3208666156e+01 4.9745432935e+01 4.7000000000e+00 0.0000e+00 -1.0000e+00
       -5  1    4    4    0  501 +3.1927220852e+01 -1.3896005653e+01 +5.2776478025e+01 6.3402626421e+01 4.7000000000e+00 0.0000e+00 1.0000e+00
        5  1    4    4  502    0 +1.2348728902e+01 -6.2782262876e+00 -7.6984838525e+00 1.6530695219e+01 4.7000000000e+00 0.0000e+00 1.0000e+00
       -5  1    4    4    0  502 +1.2072678108e+00 -2.0230435972e+00 -1.0375249633e+00 5.3587926824e+00 4.7000000000e+00 0.0000e+00 -1.0000e+00
</event>
<event>
10      1 +4.6527485e-10 2.40000000e+02 7.81860800e-03 1.03012300e-01
      -11 -1    0    0    0    0 +0.0000000000e+00 +0.0000000000e+00 +1.2000000000e+02 1.2000000000e+02 0.0000000000e+00 0.0000e+00 1.0000e+00
       11 -1    0    0    0    0 -0.0000000000e+00 -0.0000000000e+00 -1.2000000000e+02 1.2000000000e+02 0.0000000000e+00 0.0000e+00 -1.0000e+00
       23  2    1    2    0    0 -1.9328532075e+01 +5.8969096856e+01 -2.2319480664e+01 9.8670392416e+01 7.3394417950e+01 0.0000e+00 0.0000e+00
       25  2    1    2    0    0 +1.9328532075e+01 -5.8969096856e+01 +2.2319480664e+01 1.4132960758e+02 1.2499980891e+02 0.0000e+00 0.0000e+00
      -13  1    3    3    0    0 -4.1259040162e+01 +4.0816906318e+01 +6.2077873020e+00 5.8368354950e+01 0.0000000000e+00 0.0000e+00 1.0000e+00
       13  1    3    3    0    0 +2.1930508086e+01 +1.8152190538e+01 -2.8527267966e+01 4.0302037465e+01 0.0000000000e+00 0.0000e+00 -1.0000e+00
        5  1    4    4  501    0 +2.1973185819e+01 +2.6866560821e+01 +1.9849629222e+01 4.0258300580e+01 4.7000000000e+00 0.0000e+00 -1.0000e+00
       -5  1    4    4    0  501 -3.3807033569e+00 +5.3791008312e+00 +6.9731028553e-01 7.9334811132e+00 4.7000000000e+00 0.0000e+00 1.0000e+00
        5  1    4    4  502    0 +4.0927076132e+00 -5.4684722393e+01 +8.0524856729e+00 5.5624649610e+01 4.7000000000e+00 0.0000e+00 1.0000e+00
       -5  1    4    4    0  502 -3.3566579998e+00 -3.6530036115e+01 -6.2799445157e+00 3.7513176280e+01 4.7000000000e+00 0.0000e+00 1.0000e+00
</event>
<event>
10      1 +4.6527485e-10 2.40000000e+02 7.81860800e-03 1.03012300e-01
      -11 -1    0    0    0    0 +0.0000000000e+00 +0.0000000000e+00 +1.2000000000e+02 1.2000000000e+02 0.0000000000e+00 0.0000e+00 -1.0000e+00
       11 -1    0    0    0    0 -0.0000000000e+00 -0.0000000000e+00 -1.2000000000e+02 1.2000000000e+02 0.0000000000e+00 0.0000e+00 1.0000e+00
       23  2    1    2    0    0 -5.5442541472e+00 -4.3804790659e+01 -2.8657515677e+01 1.0436833820e+02 9.0121575528e+01 0.0000e+00 0.0000e+00
       25  2    1    2    0    0 +5.5442541472e+00 +4.3804790659e+01 +2.8657515677e+01 1.3563166180e+02 1.2500038415e+02 0.0000e+00 0.0000e+00
      -13  1    3    3    0    0 +1.5085597207e+01 -5.6039748910e+01 -4.6588842206e+01 7.4421427822e+01 0.0000000000e+00 0.0000e+00 1.0000e+00
       13  1    3    3    0    0 -2.0629851354e+01 +1.2234958251e+01 +1.7931326529e+01 2.9946910381e+01 0.0000000000e+00 0.0000e+00 -1.0000e+00
        5  1    4    4  501    0 +7.3882735116e-01 -2.9478626737e+01 +3.6687682536e+01 4.7303396812e+01 4.7000000000e+00 0.0000e+00 1.0000e+00
       -5  1    4    4    0  501 +3.2842680086e+00 -4.3529230563e+00 +2.7959626720e+00 7.7228079576e+00 4.7000000000e+00 0.0000e+00 1.0000e+00
        5  1    4    4  502    0 +3.5920677933e+00 +7.1969482014e+01 -1.0246517436e+01 7.2935522291e+01 4.7000000000e+00 0.0000e+00 1.0000e+00
       -5  1    4    4    0  502 -2.0709090059e+00 +5.6668584386e+00 -5.7961209514e-01 7.6699347360e+00 4.7000000000e+00 0.0000e+00 -1.0000e+00
</event>
<event>
10      1 +4.6527485e-10 2.40000000e+02 7.81860800e-03 1.03012300e-01
      -11 -1    0    0    0    0 +0.0000000000e+00 +0.0000000000e+00 +1.2000000000e+02 1.2000000000e+02 0.0000000000e+00 0.0000e+00 -1.0000e+00
       11 -1    0    0    0    0 -0.0000000000e+00 -0.0000000000e+00 -1.2000000000e+02 1.2000000000e+02 0.0000000000e+00 0.0000e+00 1.0000e+00
       23  2    1    2    0    0 -4.8734499930e+01 +7.9374428411e+00 -2.9936374545e+00 1.0556175252e+02 9.3253778732e+01 0.0000e+00 0.0000e+00
       25  2    1    2    0    0 +4.8734499930e+01 -7.9374428411e+00 +2.9936374545e+00 1.3443824748e+02 1.2500650398e+02 0.0000e+00 0.0000e+00
      -13  1    3    3    0    0 +1.7115632209e+01 +2.8089199411e+01 +1.2125928149e+01 3.5056898364e+01 0.0000000000e+00 0.0000e+00 -1.0000e+00
       13  1    3    3    0    0 -6.5850132139e+01 -2.0151756569e+01 -1.5119565604e+01 7.0504854156e+01 0.0000000000e+00 0.0000e+00 1.0000e+00
        5  1    4    4  501    0 -9.2902977022e+00 +4.2743921768e+01 +6.0154609568e+00 4.4403020731e+01 4.7000000000e+00 0.0000e+00 1.0000e+00
       -5  1    4    4    0  501 -2.7353752598e+00 +2.2570291203e+00 +3.3147914844e-01 5.8971464869e+00 4.7000000000e+00 0.0000e+00 -1.0000e+00
        5  1    4    4  502    0 +1.0802688336e+01 -1.1233007113e+00 -1.9585426326e+00 1.1995239431e+01 4.7000000000e+00 0.0000e+00 1.0000e+00
       -5  1    4    4    0  502 +4.9957484556e+01 -5.1815093018e+01 -1.3947600181e+00 7.2142840830e+01 4.7000000000e+00 0.0000e+00 1.0000e+00
</event>
<event>
10      1 +4.6527485e-10 2.40000000e+02 7.81860800e-03 1.03012300e-01
      -11 -1    0    0    0    0 +0.0000000000e+00 +0.0000000000e+00 +1.2000000000e+02 1.2000000000e+02 0.0000000000e+00 0.0000e+00 1.0000e+00
       11 -1    0    0    0    0 -0.0000000000e+00 -0.0000000000e+00 -1.2000000000e+02 1.2000000000e+02 0.0000000000e+00 0.0000e+00 -1.0000e+00
       23  2    1    2    0    0 -2.8528734828e+01 -9.7108244625e+00 -4.2663743145e+01 1.0453600906e+02 9.0550501865e+01 0.0000e+00 0.0000e+00
       25  2    1    2    0    0 +2.8528734828e+01 +9.7108244625e+00 +4.2663743145e+01 1.3546399094e+02 1.2498843563e+02 0.0000e+00 0.0000e+00
      -11  1    3    3    0    0 -5.3763222930e+01 -2.7083131558e+01 -1.2381804596e+01 6.1459655384e+01 0.0000000000e+00 0.0000e+00 -1.0000e+00
       11  1    3    3    0    0 +2.5234488102e+01 +1.7372307096e+01 -3.0281938548e+01 4.3076353674e+01 0.0000000000e+00 0.0000e+00 1.0000e+00
        5  1    4    4  501    0 +2.4666286533e+01 -2.4165757784e+01 -1.6793978941e+01 3.8685103972e+01 4.7000000000e+00 0.0000e+00 1.0000e+00
       -5  1    4    4    0  502 -5.8311703030e+00 +2.9959841677e+00 +5.0181516368e+00 9.5000165308e+00 4.7000000000e+00 0.0000e+00 1.0000e+00
        5  1    4    4  502    0 +4.9008184688e+00 +3.1280309438e+01 +6.6312604780e+01 7.3633737736e+01 4.7000000000e+00 0.0000e+00 1.0000e+00
       -5  1    4    4    0  501 +4.7928001291e+00 -3.9971135902e-01 -1.1873034331e+01 1.3645132703e+01 4.7000000000e+00 0.0000e+00 1.0000e+00
</event>
<event>
10      1 +4.6527485e-10 2.40000000e+02 7.81860800e-03 1.03012300e-01
      -11 -1    0    0    0    0 +0.0000000000e+00 +0.0000000000e+00 +1.2000000000e+02 1.2000000000e+02 0.0000000000e+00 0.0000e+00 -1.0000e+00
       11 -1    0    0    0    0 -0.0000000000e+00 -0.0000000000e+00 -1.2000000000e+02 1.2000000000e+02 0.0000000000e+00 0.0000e+00 1.0000e+00
       23  2    1    2    0    0 +4.8260441794e+01 -1.4660202639e+01 +7.5015136194e+00 1.0499985844e+02 9.1786196030e+01 0.0000e+00 0.0000e+00
       25  2    1    2    0    0 -4.8260441794e+01 +1.4660202639e+01 -7.5015136194e+00 1.3500014156e+02 1.2499909492e+02 0.0000e+00 0.0000e+00
      -13  1    3    3    0    0 +4.6845639860e+01 +1.1276876034e+01 -3.1914342810e+01 5.7794525554e+01 0.0000000000e+00 0.0000e+00 1.0000e+00
       13  1    3    3    0    0 +1.4148019335e+00 -2.5937078673e+01 +3.9415856429e+01 4.7205332884e+01 0.0000000000e+00 0.0000e+00 -1.0000e+00
        5  1    4    4  501    0 +2.3349264304e-01 -6.8039444808e+00 -1.7964466120e+01 1.9777770913e+01 4.7000000000e+00 0.0000e+00 -1.0000e+00
       -5  1    4    4    0  502 -5.1756484177e+01 +4.2283011742e+01 -6.6787860572e+00 6.7329658544e+01 4.7000000000e+00 0.0000e+00 -1.0000e+00
        5  1    4    4  502    0 -6.9494243951e+00 +5.1206754443e+00 -5.8630870927e+00 1.1444719598e+01 4.7000000000e+00 0.0000e+00 1.0000e+00
       -5  1    4    4    0  501 +1.0211974136e+01 -2.5939540067e+01 +2.3004825651e+01 3.6447992508e+01 4.7000000000e+00 0.0000e+00 -1.0000e+00
</event>
<event>
10      1 +4.6527485e-10 2.40000000e+02 7.81860800e-03 1.03012300e-01
      -11 -1    0    0    0    0 +0.0000000000e+00 +0.0000000000e+00 +1.2000000000e+02 1.2000000000e+02 0.0000000000e+00 0.0000e+00 1.0000e+00
       11 -1    0    0    0    0 -0.0000000000e+00 -0.0000000000e+00 -1.2000000000e+02 1.2000000000e+02 0.0000000000e+00 0.0000e+00 -1.0000e+00
       23  2    1    2    0    0 +3.3594954544e+01 +2.9685149163e+01 -2.1402638017e+01 1.0548466588e+02 9.3054353852e+01 0.0000e+00 0.0000e+00
       25  2    1    2    0    0 -3.3594954544e+01 -2.9685149163e+01 +2.1402638017e+01 1.3451533412e+02 1.2500589245e+02 0.0000e+00 0.0000e+00
      -13  1    3    3    0    0 +4.5005578998e+01 -2.1560738308e+01 -3.5430299437e+00 5.0029197860e+01 0.0000000000e+00 0.0000e+00 1.0000e+00
       13  1    3    3    0    0 -1.1410624455e+01 +5.1245887471e+01 -1.7859608074e+01 5.5455468023e+01 0.0000000000e+00 0.0000e+00 -1.0000e+00
        5  1    4    4  501    0 +4.7838610863e-01 +1.3681845616e+01 +3.4183633176e+01 3.7121860539e+01 4.7000000000e+00 0.0000e+00 1.0000e+00
       -5  1    4    4    0  502 -2.2548186718e+01 -4.2105706785e+01 -1.3040733374e+01 4.9733911922e+01 4.7000000000e+00 0.0000e+00 1.0000e+00
        5  1    4    4  502    0 -7.0767402648e-01 -2.2053421892e+01 -5.1736636997e+00 2.3145431855e+01 4.7000000000e+00 0.0000e+00 1.0000e+00
       -5  1    4    4    0  501 -1.0817479908e+01 +2.0792133897e+01 +5.4334019150e+00 2.4514129802e+01 4.7000000000e+00 0.0000e+00 1.0000e+00
</event>
<event>
10      1 +4.6527485e-10 2.40000000e+02 7.81860800e-03 1.03012300e-01
      -11 -1    0    0    0    0 +0.0000000000e+00 +0.0000000000e+00 +1.2000000000e+02 1.2000000000e+02 0.0000000000e+00 0.0000e+00 1.0000e+00
       11 -1    0    0    0    0 -0.0000000000e+00 -0.0000000000e+00 -1.2000000000e+02 1.2000000000e+02 0.0000000000e+00 0.0000e+00 -1.0000e+00
       23  2    1    2    0    0 +5.1176138200e+01 +8.7220211402e+00 +1.3375085436e+01 1.0398968591e+02 8.9106066520e+01 0.0000e+00 0.0000e+00
       25  2    1    2    0    0 -5.1176138200e+01 -8.7220211402e+00 -1.3375085436e+01 1.3601031409e+02 1.2499936742e+02 0.0000e+00 0.0000e+00
      -13  1    3    3    0    0 +6.1015311200e+01 +6.8282535769e+00 +4.1517946191e+01 7.4116348424e+01 0.0000000000e+00 0.0000e+00 1.0000e+00
       13  1    3    3    0    0 -9.8391729998e+00 +1.8937675634e+00 -2.8142860755e+01 2.9873337483e+01 0.0000000000e+00 0.0000e+00 -1.0000e+00
        5  1    4    4  501    0 -3.5485559148e+01 -1.6832520553e+01 -1.2600216816e+01 4.1514023174e+01 4.7000000000e+00 0.0000e+00 1.0000e+00
       -5  1    4    4    0  501 -2.2245716546e+01 -1.9912030725e+01 -3.3845772758e+01 4.5376064239e+01 4.7000000000e+00 0.0000e+00 1.0000e+00
        5  1    4    4  502    0 -3.0738810428e-01 +1.2286277709e+01 +2.7472899463e+01 3.0461406932e+01 4.7000000000e+00 0.0000e+00 1.0000e+00
       -5  1    4    4    0  502 +6.8625255986e+00 +1.5736252428e+01 +5.5980046748e+00 1.8658819749e+01 4.7000000000e+00 0.0000e+00 1.0000e+00
</event>
<event>
10      1 +4.6527485e-10 2.40000000e+02 7.81860800e-03 1.03012300e-01
      -11 -1    0    0    0    0 +0.0000000000e+00 +0.0000000000e+00 +1.2000000000e+02 1.2000000000e+02 0.0000000000e+00 0.0000e+00 1.0000e+00
       11 -1    0    0    0    0 -0.0000000000e+00 -0.0000000000e+00 -1.2000000000e+02 1.2000000000e+02 0.0000000000e+00 0.0000e+00 -1.0000e+00
       23  2    1    2    0    0 -4.0002163131e+01 -1.8182434430e+01 +2.6838866344e+01 1.0481102157e+02 9.1292121886e+01 0.0000e+00 0.0000e+00
       25  2    1    2    0    0 +4.0002163131e+01 +1.8182434430e+01 -2.6838866344e+01 1.3518897843e+02 1.2499984466e+02 0.0000e+00 0.0000e+00
      -11  1    3    3    0    0 -2.3254539579e+01 -4.0482639484e+01 +5.0110217088e+01 6.8488331614e+01 0.0000000000e+00 0.0000e+00 1.0000e+00
       11  1    3    3    0    0 -1.6747623552e+01 +2.2300205054e+01 -2.3271350743e+01 3.6322689954e+01 0.0000000000e+00 0.0000e+00 -1.0000e+00
        5  1    4    4  501    0 -1.7489066166e+01 +5.5984310270e+00 -3.4088982535e+01 3.9004597109e+01 4.7000000000e+00 0.0000e+00 1.0000e+00
       -5  1    4    4    0  501 -6.8187933072e+00 -5.2658356920e+00 -3.4619399394e+00 1.0406728393e+01 4.7000000000e+00 0.0000e+00 1.0000e+00
        5  1    4    4  502    0 +7.1371632965e+01 +2.3059233698e+01 +9.4020156010e+00 7.5737217721e+01 4.7000000000e+00 0.0000e+00 -1.0000e+00
       -5  1    4    4    0  502 -7.0616103595e+00 -5.2093946029e+00 +1.3100405295e+00 1.0040435209e+01 4.7000000000e+00 0.0000e+00 -1.0000e+00
</event>
<event>
10      1 +4.6527485e-10 2.40000000e+02 7.81860800e-03 1.03012300e-01
      -11 -1    0    0    0    0 +0.0000000000e+00 +0.0000000000e+00 +1.2000000000e+02 1.2000000000e+02 0.0000000000e+00 0.0000e+00 1.0000e+00
       11 -1    0    0    0    0 -0.0000000000e+00 -0.0000000000e+00 -1.2000000000e+02 1.2000000000e+02 0.0000000000e+00 0.0000e+00 -1.0000e+00
       23  2    1    2    0    0 -2.5011894779e+01 +2.3566163088e+01 -4.0834738229e+01 1.0408430518e+02 8.9359430477e+01 0.0000e+00 0.0000e+00
       25  2    1    2    0    0 +2.5011894779e+01 -2.3566163088e+01 +4.0834738229e+01 1.3591569482e+02 1.2499856531e+02 0.0000e+00 0.0000e+00
      -13  1    3    3    0    0 -6.7361073288e+00 +3.5665755432e+01 +1.8565806897e+01 4.0768988683e+01 0.0000000000e+00 0.0000e+00 1.0000e+00
       13  1    3    3    0    0 -1.8275787450e+01 -1.2099592343e+01 -5.9400545126e+01 6.3315316496e+01 0.0000000000e+00 0.0000e+00 -1.0000e+00
        5  1    4    4  501    0 -1.0680331488e+01 +1.5436679116e+01 +5.7221379940e+01 6.0404775184e+01 4.7000000000e+00 0.0000e+00 -1.0000e+00
       -5  1    4    4    0  502 +4.8292032271e+00 -3.3568589747e-01 +4.8019038178e-01 6.7642051738e+00 4.7000000000e+00 0.0000e+00 -1.0000e+00
        5  1    4    4  502    0 +1.9791658140e+01 -2.3936584753e+01 -3.1700614502e+01 4.4628340563e+01 4.7000000000e+00 0.0000e+00 -1.0000e+00
       -5  1    4    4    0  501 +1.1071364900e+01 -1.4730571554e+01 +1.4833782409e+01 2.4118373901e+01 4.7000000000e+00 0.0000e+00 -1.0000e+00
</event>
<event>
10      1 +4.6527485e-10 2.40000000e+02 7.81860800e-03 1.03012300e-01
      -11 -1    0    0    0    0 +0.0000000000e+00 +0.0000000000e+00 +1.2000000000e+02 1.2000000000e+02 0.0000000000e+00 0.0000e+00 1.0000e+00
       11 -1    0    0    0    0 -0.0000000000e+00 -0.0000000000e+00 -1.2000000000e+02 1.2000000000e+02 0.0000000000e+00 0.0000e+00 -1.0000e+00
       23  2    1    2    0    0 +3.4565232767e+01 +3.5288079256e+01 +1.0978271343e+01 1.0514596012e+02 9.2169119743e+01 0.0000e+00 0.0000e+00
       25  2    1    2    0    0 -3.4565232767e+01 -3.5288079256e+01 -1.0978271343e+01 1.3485403988e+02 1.2500034310e+02 0.0000e+00 0.0000e+00
      -13  1    3    3    0    0 +6.2807227590e+01 +2.5596259234e+01 +2.4837548214e+01 7.2227557937e+01 0.0000000000e+00 0.0000e+00 -1.0000e+00
       13  1    3    3    0    0 -2.8241994823e+01 +9.6918200222e+00 -1.3859276871e+01 3.2918402183e+01 0.0000000000e+00 0.0000e+00 1.0000e+00
        5  1    4    4  501    0 +7.5021410188e+00 -7.6439947523e+00 -4.6119407431e+01 4.7579433765e+01 4.7000000000e+00 0.0000e+00 -1.0000e+00
       -5  1    4    4    0  501 -4.1457875634e-01 -9.5198357670e+00 -1.1842194424e+01 1.5909956548e+01 4.7000000000e+00 0.0000e+00 -1.0000e+00
        5  1    4    4  502    0 -2.8331736641e+01 -2.4743960970e+01 +3.6065636471e+01 5.2323713932e+01 4.7000000000e+00 0.0000e+00 -1.0000e+00
       -5  1    4    4    0  502 -1.3321058389e+01 +6.6197122339e+00 +1.0917694041e+01 1.9040935634e+01 4.7000000000e+00 0.0000e+00 -1.0000e+00
</event>
<event>
10      1 +4.6527485e-10 2.40000000e+02 7.81860800e-03 1.03012300e-01
      -11 -1    0    0    0    0 +0.0000000000e+00 +0.0000000000e+00 +1.2000000000e+02 1.2000000000e+02 0.0000000000e+00 0.0000e+00 -1.0000e+00
       11 -1    0    0    0    0 -0.0000000000e+00 -0.0000000000e+00 -1.2000000000e+02 1.2000000000e+02 0.0000000000e+00 0.0000e+00 1.0000e+00
       23  2    1    2    0    0 -4.7025910886e+01 +9.3930455329e+00 +1.6876512634e+01 1.0505776542e+02 9.1938304303e+01 0.0000e+00 0.0000e+00
       25  2    1    2    0    0 +4.7025910886e+01 -9.3930455329e+00 -1.6876512634e+01 1.3494223458e+02 1.2499969758e+02 0.0000e+00 0.0000e+00
      -11  1    3    3    0    0 +1.3748834485e+01 -8.5951171210e+00 +3.5474579374e+01 3.9004516018e+01 0.0000000000e+00 0.0000e+00 -1.0000e+00
       11  1    3    3    0    0 -6.0774745371e+01 +1.7988162654e+01 -1.8598066740e+01 6.6053249406e+01 0.0000000000e+00 0.0000e+00 1.0000e+00
        5  1    4    4  501    0 +4.1567113840e+00 -3.1654087523e+00 -1.6528521266e+01 1.7960514395e+01 4.7000000000e+00 0.0000e+00 -1.0000e+00
       -5  1    4    4    0  501 -1.3477146190e+01 -1.2872024284e+01 -3.9799002115e+01 4.4196980078e+01 4.7000000000e+00 0.0000e+00 -1.0000e+00
        5  1    4    4  502    0 +5.5225569080e+01 +7.1693868809e+00 +3.3725453738e+01 6.5274495925e+01 4.7000000000e+00 0.0000e+00 1.0000e+00
       -5  1    4    4    0  502 +1.1207766120e+00 -5.2499937703e-01 +5.7255570091e+00 7.5102441787e+00 4.7000000000e+00 0.0000e+00 -1.0000e+00
</event>
<event>
10      1 +4.6527485e-10 2.40000000e+02 7.81860800e-03 1.03012300e-01
      -11 -1    0    0    0    0 +0.0000000000e+00 +0.0000000000e+00 +1.2000000000e+02 1.2000000000e+02 0.0000000000e+00 0.0000e+00 -1.0000e+00
       11 -1    0    0    0    0 -0.0000000000e+00 -0.0000000000e+00 -1.2000000000e+02 1.2000000000e+02 0.0000000000e+00 0.0000e+00 1.0000e+00
       23  2    1    2    0    0 -5.1033393320e+01 +1.2314881509e+01 -1.2227747398e+01 1.0387290922e+02 8.8791891086e+01 0.0000e+00 0.0000e+00
       25  2    1    2    0    0 +5.1033393320e+01 -1.2314881509e+01 +1.2227747398e+01 1.3612709078e+02 1.2500001399e+02 0.0000e+00 0.0000e+00
      -11  1    3    3    0    0 -3.7639616060e+01 -2.8867011470e+00 +3.5626265125e+01 5.1906690391e+01 0.0000000000e+00 0.0000e+00 -1.0000e+00
       11  1    3    3    0    0 -1.3393777260e+01 +1.5201582656e+01 -4.7854012523e+01 5.1966218826e+01 0.0000000000e+00 0.0000e+00 1.0000e+00
        5  1    4    4  501    0 -2.4331961511e+01 +1.3130000891e+01 +2.4540246725e+01 3.7266003055e+01 4.7000000000e+00 0.0000e+00 -1.0000e+00
       -5  1    4    4    0  502 +2.9143940716e+01 -2.1495885975e+01 -1.6090377672e+00 3.6552994362e+01 4.7000000000e+00 0.0000e+00 1.0000e+00
        5  1    4    4  502    0 +4.5638141380e+01 -1.4686706404e+01 -1.3912145868e+01 5.0141570541e+01 4.7000000000e+00 0.0000e+00 1.0000e+00
       -5  1    4    4    0  501 +5.8327273418e-01 +1.0737709978e+01 +3.2086843088e+00 1.2166522825e+01 4.7000000000e+00 0.0000e+00 -1.0000e+00
</event>
<event>
10      1 +4.6527485e-10 2.40000000e+02 7.81860800e-03 1.03012300e-01
      -11 -1    0    0    0    0 +0.0000000000e+00 +0.0000000000e+00 +1.2000000000e+02 1.2000000000e+02 0.0000000000e+00 0.0000e+00 1.0000e+00
       11 -1    0    0    0    0 -0.0000000000e+00 -0.0000000000e+00 -1.2000000000e+02 1.2000000000e+02 0.0000000000e+00 0.0000e+00 -1.0000e+00
       23  2    1    2    0    0 +7.5996226497e-01 -5.1902595675e+01 -1.5095969084e+01 1.0381000916e+02 8.8623770733e+01 0.0000e+00 0.0000e+00
       25  2    1    2    0    0 -7.5996226497e-01 +5.1902595675e+01 +1.5095969084e+01 1.3618999084e+02 1.2500147336e+02 0.0000e+00 0.0000e+00
      -13  1    3    3    0    0 -1.4043120155e+01 -5.1808638534e+01 +2.6352031380e+01 5.9797774276e+01 0.0000000000e+00 0.0000e+00 1.0000e+00
       13  1    3    3    0    0 +1.4803082420e+01 -9.3957140239e-02 -4.1448000464e+01 4.4012234885e+01 0.0000000000e+00 0.0000e+00 -1.0000e+00
        5  1    4    4  501    0 +3.8092898901e+01 +4.7481114808e+01 -5.9894757385e+00 6.1347282171e+01 4.7000000000e+00 0.0000e+00 -1.0000e+00
       -5  1    4    4    0  502 -2.8111476024e+01 -1.8404593331e+01 +9.4855619196e+00 3.5228539919e+01 4.7000000000e+00 0.0000e+00 -1.0000e+00
        5  1    4    4  502    0 -1.8934106758e+01 +1.4736914203e+01 +1.1863933181e+01 2.7175723532e+01 4.7000000000e+00 0.0000e+00 -1.0000e+00
       -5  1    4    4    0  501 +8.1927216164e+00 +8.0891599941e+00 -2.6405027840e-01 1.2438445218e+01 4.7000000000e+00 0.0000e+00 1.0000e+00
</event>
<event>
10      1 +4.6527485e-10 2.40000000e+02 7.81860800e-03 1.03012300e-01
      -11 -1    0    0    0    0 +0.0000000000e+00 +0.0000000000e+00 +1.2000000000e+02 1.2000000000e+02 0.0000000000e+00 0.0000e+00 -1.0000e+00
       11 -1    0    0    0    0 -0.0000000000e+00 -0.0000000000e+00 -1.2000000000e+02 1.2000000000e+02 0.0000000000e+00 0.0000e+00 1.0000e+00
       23  2    1    2    0    0 -3.3108892915e+01 +3.7204751850e+01 -9.9837441683e+00 1.0507345712e+02 9.1980236422e+01 0.0000e+00 0.0000e+00
       25  2    1    2    0    0 +3.3108892915e+01 -3.7204751850e+01 +9.9837441683e+00 1.3492654288e+02 1.2500041791e+02 0.0000e+00 0.0000e+00
      -11  1    3    3    0    0 +8.4495579646e+00 +3.9168255357e+01 -3.7752607171e+01 5.5052762018e+01 0.0000000000e+00 0.0000e+00 1.0000e+00
       11  1    3    3    0    0 -4.1558450880e+01 -1.9635035074e+00 +2.7768863003e+01 5.0020695098e+01 0.0000000000e+00 0.0000e+00 -1.0000e+00
        5  1    4    4  501    0 -3.7148471013e+00 +3.0631362336e+01 -1.0768322019e+01 3.3017074471e+01 4.7000000000e+00 0.0000e+00 -1.0000e+00
       -5  1    4    4    0  502 +8.6037364140e+00 -1.9332135118e+01 +1.6786446033e+01 2.7415880415e+01 4.7000000000e+00 0.0000e+00 1.0000e+00
        5  1    4    4  502    0 +1.6413706906e+01 -5.2204841848e+01 +1.5355700382e+01 5.7031945618e+01 4.7000000000e+00 0.0000e+00 1.0000e+00
       -5  1    4    4    0  501 +1.1806296697e+01 +3.7008627797e+00 -1.1390080228e+01 1.7461642381e+01 4.7000000000e+00 0.0000e+00 -1.0000e+00
</event>
<event>
10      1 +4.6527485e-10 2.40000000e+02 7.81860800e-03 1.03012300e-01
      -11 -1    0    0    0    0 +0.0000000000e+00 +0.0000000000e+00 +1.2000000000e+02 1.2000000000e+02 0.0000000000e+00 0.0000e+00 1.0000e+00
       11 -1    0    0    0    0 -0.0000000000e+00 -0.0000000000e+00 -1.2000000000e+02 1.2000000000e+02 0.0000000000e+00 0.0000e+00 -1.0000e+00
       23  2    1    2    0    0 -4.3630390379e+01 +3.2274385265e+01 +3.0807338825e+01 1.0029446743e+02 7.8515228861e+01 0.0000e+00 0.0000e+00
       25  2    1    2    0    0 +4.3630390379e+01 -3.2274385265e+01 -3.0807338825e+01 1.3970553257e+02 1.2499318700e+02 0.0000e+00 0.0000e+00
      -13  1    3    3    0    0 +1.5290396292e+01 +3.3049783104e+01 +9.4960147215e+00 3.7633212427e+01 0.0000000000e+00 0.0000e+00 1.0000e+00
       13  1    3    3    0    0 -5.8920786670e+01 -7.7539783894e-01 +2.1311324104e+01 6.2661255004e+01 0.0000000000e+00 0.0000e+00 -1.0000e+00
        5  1    4    4  501    0 +1.0256477983e+01 -9.6420967411e+00 +4.4689572338e+00 1.5499256400e+01 4.7000000000e+00 0.0000e+00 -1.0000e+00
       -5  1    4    4    0  501 +5.5317943258e+01 -5.0325120525e+01 -7.9210780394e+00 7.5349360180e+01 4.7000000000e+00 0.0000e+00 -1.0000e+00
        5  1    4    4  502    0 -4.4911194371e-01 +5.1370246241e+00 +2.2596772401e-01 6.9808154924e+00 4.7000000000e+00 0.0000e+00 -1.0000e+00
       -5  1    4    4    0  502 -2.1494918919e+01 +2.2555807377e+01 -2.7581185744e+01 4.1876100497e+01 4.7000000000e+00 0.0000e+00 -1.0000e+00
</event>
<event>
10      1 +4.6527485e-10 2.40000000e+02 7.81860800e-03 1.03012300e-01
      -11 -1    0    0    0    0 +0.0000000000e+00 +0.0000000000e+00 +1.2000000000e+02 1.2000000000e+02 0.0000000000e+00 0.0000e+00 1.0000e+00
       11 -1    0    0    0    0 -0.0000000000e+00 -0.0000000000e+00 -1.2000000000e+02 1.2000000000e+02 0.0000000000e+00 0.0000e+00 -1.0000e+00
       23  2    1    2    0    0 +3.3624479465e+01 -2.5816140568e+01 +2.3933776392e+01 1.0585423917e+02 9.3995827381e+01 0.0000e+00 0.0000e+00
       25  2    1    2    0    0 -3.3624479465e+01 +2.5816140568e+01 -2.3933776392e+01 1.3414576083e+02 1.2500072305e+02 0.0000e+00 0.0000e+00
      -13  1    3    3    0    0 +4.1529666443e+01 +1.7392798050e+01 +3.8845637298e+01 5.9466008408e+01 0.0000000000e+00 0.0000e+00 1.0000e+00
       13  1    3    3    0    0 -7.9051869782e+00 -4.3208938618e+01 -1.4911860906e+01 4.6388230763e+01 0.0000000000e+00 0.0000e+00 -1.0000e+00
        5  1    4    4  501    0 -4.1161224927e+00 +5.0539945071e+00 -1.1551261094e+01 1.4071494509e+01 4.7000000000e+00 0.0000e+00 1.0000e+00
       -5  1    4    4    0  502 +3.4961991551e+00 -1.9232141486e+01 +2.9229394035e+01 3.5475994001e+01 4.7000000000e+00 0.0000e+00 1.0000e+00
        5  1    4    4  502    0 +4.7516373251e+00 -5.3487747714e+00 +4.4019121173e+00 9.6257092784e+00 4.7000000000e+00 0.0000e+00 1.0000e+00
       -5  1    4    4    0  501 -3.7756193452e+01 +4.5343062319e+01 -4.6013821450e+01 7.4972563041e+01 4.7000000000e+00 0.0000e+00 1.0000e+00
</event>
<event>
10      1 +4.6527485e-10 2.40000000e+02 7.81860800e-03 1.03012300e-01
      -11 -1    0    0    0    0 +0.0000000000e+00 +0.0000000000e+00 +1.2000000000e+02 1.2000000000e+02 0.0000000000e+00 0.0000e+00 1.0000e+00
       11 -1    0    0    0    0 -0.0000000000e+00 -0.0000000000e+00 -1.2000000000e+02 1.2000000000e+02 0.0000000000e+00 0.0000e+00 -1.0000e+00
       23  2    1    2    0    0 +1.9316888730e+01 +4.5949311536e+01 +5.4552389523e+00 1.0531557053e+02 9.2612787144e+01 0.0000e+00 0.0000e+00
       25  2    1    2    0    0 -1.9316888730e+01 -4.5949311536e+01 -5.4552389523e+00 1.3468442947e+02 1.2500261793e+02 0.0000e+00 0.0000e+00
      -13  1    3    3    0    0 -1.1230652814e+01 +3.5818070783e+01 +4.2193293842e+01 5.6474204753e+01 0.0000000000e+00 0.0000e+00 1.0000e+00
       13  1    3    3    0    0 +3.0547541544e+01 +1.0131240754e+01 -3.6738054890e+01 4.8841365774e+01 0.0000000000e+00 0.0000e+00 -1.0000e+00
        5  1    4    4  501    0 +3.1197994138e+01 +1.6756599546e+01 +6.2156161107e+00 3.6260479178e+01 4.7000000000e+00 0.0000e+00 -1.0000e+00
       -5  1    4    4    0  502 -5.0780267588e+01 -4.8159801834e+01 -8.5273242182e+00 7.0659800080e+01 4.7000000000e+00 0.0000e+00 -1.0000e+00
        5  1    4    4  502    0 -5.9875400122e+00 -1.2235378204e+01 -9.6396304000e+00 1.7336885229e+01 4.7000000000e+00 0.0000e+00 -1.0000e+00
       -5  1    4    4    0  501 +6.2529247318e+00 -2.3107310449e+00 +6.4960995552e+00 1.0427264986e+01 4.7000000000e+00 0.0000e+00 1.0000e+00
</event>
<event>
10      1 +4.6527485e-10 2.40000000e+02 7.81860800e-03 1.03012300e-01
      -11 -1    0    0    0    0 +0.0000000000e+00 +0.0000000000e+00 +1.2000000000e+02 1.2000000000e+02 0.0000000000e+00 0.0000e+00 1.0000e+00
       11 -1    0    0    0    0 -0.0000000000e+00 -0.0000000000e+00 -1.2000000000e+02 1.2000000000e+02 0.0000000000e+00 0.0000e+00 -1.0000e+00
       23  2    1    2    0    0 -4.6207241027e-01 +4.8691616087e+01 -1.9809417495e+01 1.0442988372e+02 9.0233589111e+01 0.0000e+00 0.0000e+00
       25  2    1    2    0    0 +4.6207241027e-01 -4.8691616087e+01 +1.9809417495e+01 1.3557011628e+02 1.2496302021e+02 0.0000e+00 0.0000e+00
      -11  1    3    3    0    0 -7.0150032493e+00 +5.4782219445e+01 +2.3634743917e+01 6.0074145503e+01 0.0000000000e+00 0.0000e+00 1.0000e+00
       11  1    3    3    0    0 +6.5529308390e+00 -6.0906033584e+00 -4.3444161411e+01 4.4355738215e+01 0.0000000000e+00 0.0000e+00 -1.0000e+00
        5  1    4    4  501    0 +3.5089713776e-01 +1.9216074057e+01 +4.5411516108e+01 4.9534598275e+01 4.7000000000e+00 0.0000e+00 -1.0000e+00
       -5  1    4    4    0  501 +1.7111770025e+00 -4.5510623523e+01 -3.1992052623e+01 5.5854511108e+01 4.7000000000e+00 0.0000e+00 -1.0000e+00
        5  1    4    4  502    0 -8.3267906177e+00 -1.1058960583e+01 +6.9208186664e+00 1.6174788474e+01 4.7000000000e+00 0.0000e+00 -1.0000e+00
       -5  1    4    4    0  502 +6.7267888876e+00 -1.1338106038e+01 -5.3086465746e-01 1.4006218424e+01 4.7000000000e+00 0.0000e+00 -1.0000e+00
</event>
<event>
10      1 +4.6527485e-10 2.40000000e+02 7.81860800e-03 1.03012300e-01
      -11 -1    0    0    0    0 +0.0000000000e+00 +0.0000000000e+00 +1.2000000000e+02 1.2000000000e+02 0.0000000000e+00 0.0000e+00 -1.0000e+00
       11 -1    0    0    0    0 -0.0000000000e+00 -0.0000000000e+00 -1.2000000000e+02 1.2000000000e+02 0.0000000000e+00 0.0000e+00 1.0000e+00
       23  2    1    2    0    0 +3.4946354104e+01 -3.7668411419e+01 -1.5058560539e+01 1.0401773115e+02 8.9178311622e+01 0.0000e+00 0.0000e+00
       25  2    1    2    0    0 -3.4946354104e+01 +3.7668411419e+01 +1.5058560539e+01 1.3598226885e+02 1.2499704122e+02 0.0000e+00 0.0000e+00
      -11  1    3    3    0    0 +1.9987061273e+00 -1.0275600730e+01 -4.8530081815e+01 4.9646265091e+01 0.0000000000e+00 0.0000e+00 1.0000e+00
       11  1    3    3    0    0 +3.2947647977e+01 -2.7392810689e+01 +3.3471521276e+01 5.4371466057e+01 0.0000000000e+00 0.0000e+00 -1.0000e+00
        5  1    4    4  501    0 -6.3926892225e+01 +4.5709252190e+01 +3.7579107742e+00 7.8817480159e+01 4.7000000000e+00 0.0000e+00 1.0000e+00
       -5  1    4    4    0  502 +2.6007980070e+00 +2.7032661367e+00 +7.3202621954e-01 6.0578593963e+00 4.7000000000e+00 0.0000e+00 -1.0000e+00
        5  1    4    4  502    0 +3.2770943004e+01 -1.9101816060e+01 +1.0279306319e+01 3.9579896672e+01 4.7000000000e+00 0.0000e+00 -1.0000e+00
       -5  1    4    4    0  501 -6.3912028910e+00 +8.3577091524e+00 +2.8931722612e-01 1.1527032625e+01 4.7000000000e+00 0.0000e+00 1.0000e+00
</event>
<event>
10      1 +4.6527485e-10 2.40000000e+02 7.81860800e-03 1.03012300e-01
      -11 -1    0    0    0    0 +0.0000000000e+00 +0.0000000000e+00 +1.2000000000e+02 1.2000000000e+02 0.0000000000e+00 0.0000e+00 1.0000e+00
       11 -1    0    0    0    0 -0.0000000000e+00 -0.0000000000e+00 -1.2000000000e+02 1.2000000000e+02 0.0000000000e+00 0.0000e+00 -1.0000e+00
       23  2    1    2    0    0 +4.3182219873e+01 +2.1920978471e+01 +1.1324884819e+01 1.0547020843e+02 9.3007948267e+01 0.0000e+00 0.0000e+00
       25  2    1    2    0    0 -4.3182219873e+01 -2.1920978471e+01 -1.1324884819e+01 1.3452979157e+02 1.2499911357e+02 0.0000e+00 0.0000e+00
      -11  1    3    3    0    0 +3.5204396532e+01 +2.9682441832e+00 -3.8087282923e+01 5.1949986806e+01 0.0000000000e+00 0.0000e+00 1.0000e+00
       11  1    3    3    0    0 +7.9778233418e+00 +1.8952734288e+01 +4.9412167742e+01 5.3520221629e+01 0.0000000000e+00 0.0000e+00 -1.0000e+00
        5  1    4    4  501    0 -4.9823043808e+01 -4.6927519188e+00 +3.8360156840e+01 6.3229338504e+01 4.7000000000e+00 0.0000e+00 1.0000e+00
       -5  1    4    4    0  502 +4.8720141716e-01 -1.9253126750e+01 -4.4490350126e+01 4.8707304475e+01 4.7000000000e+00 0.0000e+00 1.0000e+00
        5  1    4    4  502    0 +9.3951943312e+00 -5.1616091068e+00 -6.3929010489e+00 1.3336831292e+01 4.7000000000e+00 0.0000e+00 -1.0000e+00
       -5  1    4    4    0  501 -3.2415718135e+00 +7.1865093046e+00 +1.1982095150e+00 9.2563172941e+00 4.7000000000e+00 0.0000e+00 -1.0000e+00
</event>
<event>
10      1 +4.6527485e-10 2.40000000e+02 7.81860800e-03 1.03012300e-01
      -11 -1    0    0    0    0 +0.0000000000e+00 +0.0000000000e+00 +1.2000000000e+02 1.2000000000e+02 0.0000000000e+00 0.0000e+00 1.0000e+00
       11 -1    0    0    0    0 -0.0000000000e+00 -0.0000000000e+00 -1.2000000000e+02 1.2000000000e+02 0.0000000000e+00 0.0000e+00 -1.0000e+00
       23  2    1    2    0    0 -1.6749400564e+01 -1.6921716128e+01 -4.6463438187e+01 1.0454091691e+02 9.0570775222e+01 0.0000e+00 0.0000e+00
       25  2    1    2    0    0 +1.6749400564e+01 +1.6921716128e+01 +4.6463438187e+01 1.3545908309e+02 1.2499370067e+02 0.0000e+00 0.0000e+00
      -11  1    3    3    0    0 +1.5540800128e+01 -1.9708801985e+01 -6.3245337572e+01 6.8043560084e+01 0.0000000000e+00 0.0000e+00 -1.0000e+00
       11  1    3    3    0    0 -3.2290200692e+01 +2.7870858570e+00 +1.6781899385e+01 3.6497356826e+01 0.0000000000e+00 0.0000e+00 1.0000e+00
        5  1    4    4  501    0 -4.5426277178e+00 -3.3916142427e+01 +6.0377264262e-01 3.4545545662e+01 4.7000000000e+00 0.0000e+00 -1.0000e+00
       -5  1    4    4    0  501 +5.6833988152e+00 -8.5264352109e+00 -1.0904344005e+01 1.5684254451e+01 4.7000000000e+00 0.0000e+00 -1.0000e+00
        5  1    4    4  502    0 +1.4392246510e+01 +4.6618072292e+01 +4.9951788613e+01 6.9983230916e+01 4.7000000000e+00 0.0000e+00 -1.0000e+00
       -5  1    4    4    0  502 +1.2163829569e+00 +1.2746221474e+01 +6.8122209358e+00 1.5246052061e+01 4.7000000000e+00 0.0000e+00 -1.0000e+00
</event>
<event>
10      1 +4.6527485e-10 2.40000000e+02 7.81860800e-03 1.03012300e-01
      -11 -1    0    0    0    0 +0.0000000000e+00 +0.0000000000e+00 +1.2000000000e+02 1.2000000000e+02 0.0000000000e+00 0.0000e+00 1.0000e+00
       11 -1    0    0    0    0 -0.0000000000e+00 -0.0000000000e+00 -1.2000000000e+02 1.2000000000e+02 0.0000000000e+00 0.0000e+00 -1.0000e+00
       23  2    1    2    0    0 -3.3471945992e+01 +1.8574995637e+00 +4.5678526836e+01 1.0276763258e+02 8.5737022450e+01 0.0000e+00 0.0000e+00
       25  2    1    2    0    0 +3.3471945992e+01 -1.8574995637e+00 -4.5678526836e+01 1.3723236742e+02 1.2498949308e+02 0.0000e+00 0.0000e+00
      -13  1    3    3    0    0 +2.0142243500e+01 +1.5428076710e+01 +3.9734551542e+01 4.7144141846e+01 0.0000000000e+00 0.0000e+00 -1.0000e+00
       13  1    3    3    0    0 -5.3614189492e+01 -1.3570577146e+01 +5.9439752942e+00 5.5623490732e+01 0.0000000000e+00 0.0000e+00 1.0000e+00
        5  1    4    4  501    0 +6.4437157925e+00 +5.1645118929e-01 -1.6796020233e+01 1.8600658341e+01 4.7000000000e+00 0.0000e+00 1.0000e+00
       -5  1    4    4    0  501 +5.1384847583e+00 -1.8543866474e+01 -1.2709642161e+01 2.3535165461e+01 4.7000000000e+00 0.0000e+00 1.0000e+00
        5  1    4    4  502    0 -5.7593699724e+00 +7.4076504496e+00 -4.9538270682e+01 5.0637672634e+01 4.7000000000e+00 0.0000e+00 1.0000e+00
       -5  1    4    4    0  502 +2.7649115413e+01 +8.7622652714e+00 +3.3365406240e+01 4.4458870986e+01 4.7000000000e+00 0.0000e+00 1.0000e+00
</event>
<event>
10      1 +4.6527485e-10 2.40000000e+02 7.81860800e-03 1.03012300e-01
      -11 -1    0    0    0    0 +0.0000000000e+00 +0.0000000000e+00 +1.2000000000e+02 1.2000000000e+02 0.0000000000e+00 0.0000e+00 1.0000e+00
       11 -1    0    0    0    0 -0.0000000000e+00 -0.0000000000e+00 -1.2000000000e+02 1.2000000000e+02 0.0000000000e+00 0.0000e+00 -1.0000e+00
       23  2    1    2    0    0 +4.9650762195e+01 +1.5200249542e+01 +4.5806753943e+00 1.0456642721e+02 9.0647169505e+01 0.0000e+00 0.0000e+00
       25  2    1    2    0    0 -4.9650762195e+01 -1.5200249542e+01 -4.5806753943e+00 1.3543357279e+02 1.2500009712e+02 0.0000e+00 0.0000e+00
      -11  1    3    3    0    0 -1.2806599725e+01 +7.6113817450e+00 +3.2485904249e+01 3.5738999755e+01 0.0000000000e+00 0.0000e+00 1.0000e+00
       11  1    3    3    0    0 +6.2457361920e+01 +7.5888677966e+00 -2.7905228855e+01 6.8827427453e+01 0.0000000000e+00 0.0000e+00 -1.0000e+00
        5  1    4    4  501    0 -2.9045950645e+01 -1.6609993161e+01 -1.9092573616e+00 3.3842198294e+01 4.7000000000e+00 0.0000e+00 -1.0000e+00
       -5  1    4    4    0  501 -5.7120819656e+01 -2.2931322909e+00 -1.3950131998e+01 5.9031709077e+01 4.7000000000e+00 0.0000e+00 -1.0000e+00
        5  1    4    4  502    0 +1.1672430463e+01 -2.6119686708e+00 -2.4820084873e+00 1.3088864710e+01 4.7000000000e+00 0.0000e+00 -1.0000e+00
       -5  1    4    4    0  502 +2.4843577643e+01 +6.3148445808e+00 +1.3760722453e+01 2.9470800711e+01 4.7000000000e+00 0.0000e+00 -1.0000e+00
</event>
<event>
10      1 +4.6527485e-10 2.40000000e+02 7.81860800e-03 1.03012300e-01
      -11 -1    0    0    0    0 +0.0000000000e+00 +0.0000000000e+00 +1.2000000000e+02 1.2000000000e+02 0.0000000000e+00 0.0000e+00 1.0000e+00
       11 -1    0    0    0    0 -0.0000000000e+00 -0.0000000000e+00 -1.2000000000e+02 1.2000000000e+02 0.0000000000e+00 0.0000e+00 -1.0000e+00
       23  2    1    2    0    0 -1.6718576553e+01 -4.5520855503e+01 +2.4897690309e+01 1.0363069011e+02 8.8134929868e+01 0.0000e+00 0.0000e+00
       25  2    1    2    0    0 +1.6718576553e+01 +4.5520855503e+01 -2.4897690309e+01 1.3636930989e+02 1.2500013843e+02 0.0000e+00 0.0000e+00
      -13  1    3    3    0    0 -1.7953245436e+01 -3.4835950465e+01 +5.7339259471e+01 6.9452524383e+01 0.0000000000e+00 0.0000e+00 1.0000e+00
       13  1    3    3    0    0 +1.2346688831e+00 -1.0684905038e+01 -3.2441569162e+01 3.4178165730e+01 0.0000000000e+00 0.0000e+00 -1.0000e+00
        5  1    4    4  501    0 -1.6121839494e+01 +3.2298114888e+00 -1.1033632612e+01 2.0351325253e+01 4.7000000000e+00 0.0000e+00 -1.0000e+00
       -5  1    4    4    0  501 -3.4005903368e+01 +1.1261995802e+01 +3.9048880988e+00 3.6339677550e+01 4.7000000000e+00 0.0000e+00 -1.0000e+00
        5  1    4    4  502    0 +9.7399602369e+00 +1.3669103754e+01 -7.3073652515e+00 1.8899703960e+01 4.7000000000e+00 0.0000e+00 -1.0000e+00
       -5  1    4    4    0  502 +5.7106359179e+01 +1.7359944458e+01 -1.0461580544e+01 6.0778603124e+01 4.7000000000e+00 0.0000e+00 -1.0000e+00
</event>
<event>
10      1 +4.6527485e-10 2.40000000e+02 7.81860800e-03 1.03012300e-01
      -11 -1    0    0    0    0 +0.0000000000e+00 +0.0000000000e+00 +1.2000000000e+02 1.2000000000e+02 0.0000000000e+00 0.0000e+00 -1.0000e+00
       11 -1    0    0    0    0 -0.0000000000e+00 -0.0000000000e+00 -1.2000000000e+02 1.2000000000e+02 0.0000000000e+00 0.0000e+00 1.0000e+00
       23  2    1    2    0    0 -3.9876063731e+01 +1.1906527469e+01 +1.2301783121e+01 1.0768185142e+02 9.8550400312e+01 0.0000e+00 0.0000e+00
       25  2    1    2    0    0 +3.9876063731e+01 -1.1906527469e+01 -1.2301783121e+01 1.3231814858e+02 1.2499957088e+02 0.0000e+00 0.0000e+00
      -13  1    3    3    0    0 -3.8187643370e+01 -1.2917324540e+01 -3.5549305825e+01 5.3748549041e+01 0.0000000000e+00 0.0000e+00 1.0000e+00
       13  1    3    3    0    0 -1.6884203602e+00 +2.4823852009e+01 +4.7851088946e+01 5.3933302376e+01 0.0000000000e+00 0.0000e+00 -1.0000e+00
        5  1    4    4  501    0 +5.8498965058e+00 -4.9971250961e+00 -6.1072788296e+00 1.0889508853e+01 4.7000000000e+00 0.0000e+00 1.0000e+00
       -5  1    4    4    0  501 +7.2813890595e+01 -1.5301155538e+01 -1.3850706973e+01 7.5828227647e+01 4.7000000000e+00 0.0000e+00 -1.0000e+00
        5  1    4    4  502    0 -3.1677685490e+01 +8.4017963895e+00 +1.2968290537e+01 3.5557453508e+01 4.7000000000e+00 0.0000e+00 1.0000e+00
       -5  1    4    4    0  502 -7.1100378809e+00 -1.0043225112e-02 -5.3120878556e+00 1.0042958574e+01 4.7000000000e+00 0.0000e+00 1.0000e+00
</event>
<event>
10      1 +4.6527485e-10 2.40000000e+02 7.81860800e-03 1.03012300e-01
      -11 -1    0    0    0    0 +0.0000000000e+00 +0.0000000000e+00 +1.2000000000e+02 1.2000000000e+02 0.0000000000e+00 0.0000e+00 -1.0000e+00
       11 -1    0    0    0    0 -0.0000000000e+00 -0.0000000000e+00 -1.2000000000e+02 1.2000000000e+02 0.0000000000e+00 0.0000e+00 1.0000e+00
       23  2    1    2    0    0 -3.3208212045e+01 +2.9613846657e+01 -2.0037467508e+01 1.0580980065e+02 9.3885294635e+01 0.0000e+00 0.0000e+00
       25  2    1    2    0    0 +3.3208212045e+01 -2.9613846657e+01 +2.0037467508e+01 1.3419019935e+02 1.2500297691e+02 0.0000e+00 0.0000e+00
      -11  1    3    3    0    0 -4.6308938715e+01 +7.4419118581e-01 +2.3513373002e+01 5.1941797575e+01 0.0000000000e+00 0.0000e+00 -1.0000e+00
       11  1    3    3    0    0 +1.3100726669e+01 +2.8869655471e+01 -4.3550840510e+01 5.3868003076e+01 0.0000000000e+00 0.0000e+00 1.0000e+00
        5  1    4    4  501    0 -2.1597676531e+00 +3.5299371038e+00 -4.0691229332e+01 4.1170270789e+01 4.7000000000e+00 0.0000e+00 -1.0000e+00
       -5  1    4    4    0  501 -2.4842615632e+00 -1.0886120351e+01 -2.8570661960e+00 1.2447168315e+01 4.7000000000e+00 0.0000e+00 -1.0000e+00
        5  1    4    4  502    0 +3.3183395920e+01 -1.4859031338e+01 +3.6538326490e+01 5.1759712903e+01 4.7000000000e+00 0.0000e+00 -1.0000e+00
       -5  1    4    4    0  502 +4.6688453413e+00 -7.3986320723e+00 +2.7047436546e+01 2.8813047341e+01 4.7000000000e+00 0.0000e+00 -1.0000e+00
</event>
<event>
10      1 +4.6527485e-10 2.40000000e+02 7.81860800e-03 1.03012300e-01
      -11 -1    0    0    0    0 +0.0000000000e+00 +0.0000000000e+00 +1.2000000000e+02 1.2000000000e+02 0.0000000000e+00 0.0000e+00 -1.0000e+00
       11 -1    0    0    0    0 -0.0000000000e+00 -0.0000000000e+00 -1.2000000000e+02 1.2000000000e+02 0.0000000000e+00 0.0000e+00 1.0000e+00
       23  2    1    2    0    0 +3.9147290085e+01 -1.6368671974e+01 -3.6419817585e+01 1.0306254767e+02 8.6573909901e+01 0.0000e+00 0.0000e+00
       25  2    1    2    0    0 -3.9147290085e+01 +1.6368671974e+01 +3.6419817585e+01 1.3693745233e+02 1.2500007598e+02 0.0000e+00 0.0000e+00
      -13  1    3    3    0    0 +4.2685834871e+01 +2.3354641339e+01 +5.8159433912e-01 4.8660641412e+01 0.0000000000e+00 0.0000e+00 1.0000e+00
       13  1    3    3    0    0 -3.5385447863e+00 -3.9723313313e+01 -3.7001411924e+01 5.4401906255e+01 0.0000000000e+00 0.0000e+00 -1.0000e+00
        5  1    4    4  501    0 -2.6819026772e+01 +5.9835660412e+00 -4.0224922249e+00 2.8166180132e+01 4.7000000000e+00 0.0000e+00 1.0000e+00
       -5  1    4    4    0  501 -3.1019861713e+01 +6.2772631344e+00 -2.3469386119e+01 3.9680447805e+01 4.7000000000e+00 0.0000e+00 1.0000e+00
        5  1    4    4  502    0 +7.2222808120e+00 -3.7224510844e+00 +1.2515048595e+01 1.5643990013e+01 4.7000000000e+00 0.0000e+00 1.0000e+00
       -5  1    4    4    0  502 +1.1469317588e+01 +7.8302938831e+00 +5.1396647335e+01 5.3446834383e+01 4.7000000000e+00 0.0000e+00 1.0000e+00
</event>
<event>
10      1 +4.6527485e-10 2.40000000e+02 7.81860800e-03 1.03012300e-01
      -11 -1    0    0    0    0 +0.0000000000e+00 +0.0000000000e+00 +1.2000000000e+02 1.2000000000e+02 0.0000000000e+00 0.0000e+00 1.0000e+00
       11 -1    0    0    0    0 -0.0000000000e+00 -0.0000000000e+00 -1.2000000000e+02 1.2000000000e+02 0.0000000000e+00 0.0000e+00 -1.0000e+00
       23  2    1    2    0    0 -4.3828978235e+01 -1.1064470641e+01 +1.6575507876e+01 1.0604755473e+02 9.4487748198e+01 0.0000e+00 0.0000e+00
       25  2    1    2    0    0 +4.3828978235e+01 +1.1064470641e+01 -1.6575507876e+01 1.3395244527e+02 1.2500043315e+02 0.0000e+00 0.0000e+00
      -11  1    3    3    0    0 +5.7140900622e+00 -4.3355205575e+01 -2.7933698445e+00 4.3819260500e+01 0.0000000000e+00 0.0000e+00 1.0000e+00
       11  1    3    3    0    0 -4.9543068297e+01 +3.2290734934e+01 +1.9368877720e+01 6.2228294232e+01 0.0000000000e+00 0.0000e+00 -1.0000e+00
        5  1    4    4  501    0 -8.0527631543e+00 +1.1570416121e+01 -4.3994601013e+01 4.6436369819e+01 4.7000000000e+00 0.0000e+00 -1.0000e+00
       -5  1    4    4    0  501 +1.3375822706e+01 +3.9330866530e-01 -1.8220000172e+01 2.3089515608e+01 4.7000000000e+00 0.0000e+00 -1.0000e+00
        5  1    4    4  502    0 +1.0145418198e+01 -5.1907699511e+00 +2.7574093117e+01 3.0204208553e+01 4.7000000000e+00 0.0000e+00 -1.0000e+00
       -5  1    4    4    0  502 +2.8360500486e+01 +4.2915158059e+00 +1.8065000193e+01 3.4222351288e+01 4.7000000000e+00 0.0000e+00 -1.0000e+00
</event>
<event>
10      1 +4.6527485e-10 2.40000000e+02 7.81860800e-03 1.03012300e-01
      -11 -1    0    0    0    0 +0.0000000000e+00 +0.0000000000e+00 +1.2000000000e+02 1.2000000000e+02 0.0000000000e+00 0.0000e+00 1.0000e+00
       11 -1    0    0    0    0 -0.0000000000e+00 -0.0000000000e+00 -1.2000000000e+02 1.2000000000e+02 0.0000000000e+00 0.0000e+00 -1.0000e+00
       23  2    1    2    0    0 -2.1785035429e+01 -2.1215200624e+01 -3.7299244057e+01 1.0607098391e+02 9.4525909225e+01 0.0000e+00 0.0000e+00
       25  2    1    2    0    0 +2.1785035429e+01 +2.1215200624e+01 +3.7299244057e+01 1.3392901609e+02 1.2498429996e+02 0.0000e+00 0.0000e+00
      -11  1    3    3    0    0 +3.0314858138e+01 -1.1143392235e+01 +1.1197192553e+01 3.4183957282e+01 0.0000000000e+00 0.0000e+00 1.0000e+00
       11  1    3    3    0    0 -5.2099893567e+01 -1.0071808389e+01 -4.8496436610e+01 7.1887026631e+01 0.0000000000e+00 0.0000e+00 -1.0000e+00
        5  1    4    4  501    0 -3.1861262388e+00 +1.1024284641e+00 +4.4385422385e+00 7.2909125719e+00 4.7000000000e+00 0.0000e+00 1.0000e+00
       -5  1    4    4    0  501 -3.2028950109e+01 -2.9643756705e+01 +1.1076362774e+01 4.5270097956e+01 4.7000000000e+00 0.0000e+00 1.0000e+00
        5  1    4    4  502    0 +1.6791883911e+00 +3.0924019916e+00 +1.6835784033e+00 6.1079505540e+00 4.7000000000e+00 0.0000e+00 1.0000e+00
       -5  1    4    4    0  502 +5.5320923385e+01 +4.6664126873e+01 +2.0100760642e+01 7.5260055005e+01 4.7000000000e+00 0.0000e+00 1.0000e+00
</event>
<event>
10      1 +4.6527485e-10 2.40000000e+02 7.81860800e-03 1.03012300e-01
      -11 -1    0    0    0    0 +0.0000000000e+00 +0.0000000000e+00 +1.2000000000e+02 1.2000000000e+02 0.0000000000e+00 0.0000e+00 1.0000e+00
       11 -1    0    0    0    0 -0.0000000000e+00 -0.0000000000e+00 -1.2000000000e+02 1.2000000000e+02 0.0000000000e+00 0.0000e+00 -1.0000e+00
       23  2    1    2    0    0 +1.0901825474e+01 +7.4115562301e-01 +4.9947729373e+01 1.0494729030e+02 9.1650198914e+01 0.0000e+00 0.0000e+00
       25  2    1    2    0    0 -1.0901825474e+01 -7.4115562301e-01 -4.9947729373e+01 1.3505270970e+02 1.2500023847e+02 0.0000e+00 0.0000e+00
      -13  1    3    3    0    0 +3.8716630239e+01 -3.1093554342e+01 +3.1631703991e+01 5.8875727393e+01 0.0000000000e+00 0.0000e+00 1.0000e+00
       13  1    3    3    0    0 -2.7814804765e+01 +3.1834709965e+01 +1.8316025382e+01 4.6071562905e+01 0.0000000000e+00 0.0000e+00 -1.0000e+00
        5  1    4    4  501    0 -9.8947158800e+00 -2.0425508590e+01 -1.4844789561e+01 2.7523891088e+01 4.7000000000e+00 0.0000e+00 -1.0000e+00
       -5  1    4    4    0  501 +6.9071648210e-01 -3.8620372070e+01 -7.1255111855e+00 3.9558477444e+01 4.7000000000e+00 0.0000e+00 -1.0000e+00
        5  1    4    4  502    0 -9.2796532457e+00 +2.3241082371e+01 -8.2783814138e+00 2.6774642350e+01 4.7000000000e+00 0.0000e+00 1.0000e+00
       -5  1    4    4    0  502 +7.5818271691e+00 +3.5063642666e+01 -1.9699047213e+01 4.1195698821e+01 4.7000000000e+00 0.0000e+00 1.0000e+00
</event>
<event>
10      1 +4.6527485e-10 2.40000000e+02 7.81860800e-03 1.03012300e-01
      -11 -1    0    0    0    0 +0.0000000000e+00 +0.0000000000e+00 +1.2000000000e+02 1.2000000000e+02 0.0000000000e+00 0.0000e+00 1.0000e+00
       11 -1    0    0    0    0 -0.0000000000e+00 -0.0000000000e+00 -1.2000000000e+02 1.2000000000e+02 0.0000000000e+00 0.0000e+00 -1.0000e+00
       23  2    1    2    0    0 -1.7399953276e+01 +4.2814217811e+01 -1.8969838070e+01 1.0538699754e+02 9.2794120896e+01 0.0000e+00 0.0000e+00
       25  2    1    2    0    0 +1.7399953276e+01 -4.2814217811e+01 +1.8969838070e+01 1.3461300246e+02 1.2499996022e+02 0.0000e+00 0.0000e+00
      -11  1    3    3    0    0 +2.5307977817e+01 +3.6117623800e+01 +1.8837939695e+01 4.7956693611e+01 0.0000000000e+00 0.0000e+00 1.0000e+00
       11  1    3    3    0    0 -4.2707931093e+01 +6.6965940109e+00 -3.7807777765e+01 5.7430303927e+01 0.0000000000e+00 0.0000e+00 -1.0000e+00
        5  1    4    4  501    0 -2.6978028981e+01 -2.9587765144e+01 -3.2665293122e+01 5.1887968438e+01 4.7000000000e+00 0.0000e+00 1.0000e+00
       -5  1    4    4    0  502 +8.6255378764e+00 -5.6454626604e+00 +8.4672063021e-01 1.1361253810e+01 4.7000000000e+00 0.0000e+00 -1.0000e+00
        5  1    4    4  502    0 -5.1383412121e+00 +2.8719975465e+00 +5.8773262649e+00 9.5542600103e+00 4.7000000000e+00 0.0000e+00 -1.0000e+00
       -5  1    4    4    0  501 +4.0890785593e+01 -1.0452987553e+01 +4.4911084297e+01 6.1809520204e+01 4.7000000000e+00 0.0000e+00 1.0000e+00
</event>
<event>
10      1 +4.6527485e-10 2.40000000e+02 7.81860800e-03 1.03012300e-01
      -11 -1    0    0    0    0 +0.0000000000e+00 +0.0000000000e+00 +1.2000000000e+02 1.2000000000e+02 0.0000000000e+00 0.0000e+00 1.0000e+00
       11 -1    0    0    0    0 -0.0000000000e+00 -0.0000000000e+00 -1.2000000000e+02 1.2000000000e+02 0.0000000000e+00 0.0000e+00 -1.0000e+00
       23  2    1    2    0    0 +4.9838936572e+01 +2.9706922225e+00 +1.4133649548e+01 1.0465935097e+02 9.0890456510e+01 0.0000e+00 0.0000e+00
       25  2    1    2    0    0 -4.9838936572e+01 -2.9706922225e+00 -1.4133649548e+01 1.3534064903e+02 1.2499834647e+02 0.0000e+00 0.0000e+00
      -13  1    3    3    0    0 +2.3240462377e+01 -3.6697351827e+01 -1.8080802546e+01 4.7050293764e+01 0.0000000000e+00 0.0000e+00 -1.0000e+00
       13  1    3    3    0    0 +2.6598474196e+01 +3.9668044050e+01 +3.2214452094e+01 5.7609057204e+01 0.0000000000e+00 0.0000e+00 1.0000e+00
        5  1    4    4  501    0 -4.8574120668e+01 -3.2780574457e+01 -1.4678615294e+00 5.8806937328e+01 4.7000000000e+00 0.0000e+00 -1.0000e+00
       -5  1    4    4    0  502 -1.3040411714e+00 +4.6333634314e+00 -1.3430739445e+00 6.8602060963e+00 4.7000000000e+00 0.0000e+00 1.0000e+00
        5  1    4    4  502    0 +2.7169189872e+01 +2.9208845209e+01 -1.1722376939e+01 4.1842868423e+01 4.7000000000e+00 0.0000e+00 1.0000e+00
       -5  1    4    4    0  501 -2.7129964605e+01 -4.0323264060e+00 +3.9966286439e-01 2.7830637185e+01 4.7000000000e+00 0.0000e+00 -1.0000e+00
</event>
<event>
10      1 +4.6527485e-10 2.40000000e+02 7.81860800e-03 1.03012300e-01
      -11 -1    0    0    0    0 +0.0000000000e+00 +0.0000000000e+00 +1.2000000000e+02 1.2000000000e+02 0.0000000000e+00 0.0000e+00 1.0000e+00
       11 -1    0    0    0    0 -0.0000000000e+00 -0.0000000000e+00 -1.2000000000e+02 1.2000000000e+02 0.0000000000e+00 0.0000e+00 -1.0000e+00
       23  2    1    2    0    0 -4.2710382497e+01 +3.2501514145e+01 -9.2820475281e+00 1.0364746819e+02 8.8182288817e+01 0.0000e+00 0.0000e+00
       25  2    1    2    0    0 +4.2710382497e+01 -3.2501514145e+01 +9.2820475281e+00 1.3635253181e+02 1.2500132531e+02 0.0000e+00 0.0000e+00
      -11  1    3    3    0    0 -4.9145676712e+01 +4.1841612393e+01 -3.6507368172e+01 7.4153934473e+01 0.0000000000e+00 0.0000e+00 -1.0000e+00
       11  1    3    3    0    0 +6.4352942147e+00 -9.3400982475e+00 +2.7225320644e+01 2.9493533716e+01 0.0000000000e+00 0.0000e+00 1.0000e+00
        5  1    4    4  501    0 -3.4927382541e+00 +1.9208994989e+00 +9.1408635235e-01 6.2301387830e+00 4.7000000000e+00 0.0000e+00 -1.0000e+00
       -5  1    4    4    0  502 +2.2891584251e+01 -2.7110453539e+01 -9.9033240967e+00 3.7137139749e+01 4.7000000000e+00 0.0000e+00 1.0000e+00
        5  1    4    4  502    0 +4.1285372727e+01 -2.0261471532e+01 -1.8505671284e+01 4.9795171448e+01 4.7000000000e+00 0.0000e+00 1.0000e+00
       -5  1    4    4    0  501 -1.7973836227e+01 +1.2949511427e+01 +3.6776956557e+01 4.3190081830e+01 4.7000000000e+00 0.0000e+00 -1.0000e+00
</event>
<event>
10      1 +4.6527485e-10 2.40000000e+02 7.81860800e-03 1.03012300e-01
      -11 -1    0    0    0    0 +0.0000000000e+00 +0.0000000000e+00 +1.2000000000e+02 1.2000000000e+02 0.0000000000e+00 0.0000e+00 1.0000e+00
       11 -1    0    0    0    0 -0.0000000000e+00 -0.0000000000e+00 -1.2000000000e+02 1.2000000000e+02 0.0000000000e+00 0.0000e+00 -1.0000e+00
       23  2    1    2    0    0 +4.3769600716e+01 -2.8144598043e+01 +5.4237296795e+00 1.0448626189e+02 9.0443715839e+01 0.0000e+00 0.0000e+00
       25  2    1    2    0    0 -4.3769600716e+01 +2.8144598043e+01 -5.4237296795e+00 1.3551373811e+02 1.2500663993e+02 0.0000e+00 0.0000e+00
      -11  1    3    3    0    0 +1.3594691103e+01 -4.7038479511e+01 -2.7359947338e+01 5.6089222666e+01 0.0000000000e+00 0.0000e+00 -1.0000e+00
       11  1    3    3    0    0 +3.0174909614e+01 +1.8893881468e+01 +3.2783677018e+01 4.8397039227e+01 0.0000000000e+00 0.0000e+00 1.0000e+00
        5  1    4    4  501    0 -3.1008142230e+00 +7.7301217538e+00 +1.6274827531e+01 1.8876701045e+01 4.7000000000e+00 0.0000e+00 1.0000e+00
       -5  1    4    4    0  501 -1.4029536680e+01 -1.1962009119e+01 +3.7382741776e+01 4.1946119539e+01 4.7000000000e+00 0.0000e+00 1.0000e+00
        5  1    4    4  502    0 -3.4345592422e-01 +4.1073226650e+00 -4.6458405010e+00 7.7885746711e+00 4.7000000000e+00 0.0000e+00 1.0000e+00
       -5  1    4    4    0  502 -2.6295793889e+01 +2.8269162744e+01 -5.4435458486e+01 6.6902342852e+01 4.7000000000e+00 0.0000e+00 -1.0000e+00
</event>
<event>
10      1 +4.6527485e-10 2.40000000e+02 7.81860800e-03 1.03012300e-01
      -11 -1    0    0    0    0 +0.0000000000e+00 +0.0000000000e+00 +1.2000000000e+02 1.2000000000e+02 0.0000000000e+00 0.0000e+00 1.0000e+00
       11 -1    0    0    0    0 -0.0000000000e+00 -0.0000000000e+00 -1.2000000000e+02 1.2000000000e+02 0.0000000000e+00 0.0000e+00 -1.0000e+00
       23  2    1    2    0    0 -2.8961421801e+01 +4.2868600157e+01 +6.8764498653e+00 1.0454608182e+02 9.0587619622e+01 0.0000e+00 0.0000e+00
       25  2    1    2    0    0 +2.8961421801e+01 -4.2868600157e+01 -6.8764498653e+00 1.3545391818e+02 1.2499599016e+02 0.0000e+00 0.0000e+00
      -13  1    3    3    0    0 +1.2950607526e+01 +8.7432523613e+00 +3.8762569817e+01 4.1793534380e+01 0.0000000000e+00 0.0000e+00 1.0000e+00
       13  1    3    3    0    0 -4.1912029327e+01 +3.4125347796e+01 -3.1886119951e+01 6.2752547439e+01 0.0000000000e+00 0.0000e+00 -1.0000e+00
        5  1    4    4  501    0 +5.4996559260e+01 -5.7326704046e+01 -1.7303428731e+01 8.1439985100e+01 4.7000000000e+00 0.0000e+00 1.0000e+00
       -5  1    4    4    0  501 -2.7002575916e+01 +1.8085726406e+01 +4.1628169985e+00 3.3100629164e+01 4.7000000000e+00 0.0000e+00 1.0000e+00
        5  1    4    4  502    0 +8.6316848614e+00 -4.6001032384e+00 +2.6183555776e+00 1.1163006731e+01 4.7000000000e+00 0.0000e+00 -1.0000e+00
       -5  1    4    4    0  502 -7.6642464052e+00 +9.7248072174e-01 +3.6458062892e+00 9.7502971858e+00 4.7000000000e+00 0.0000e+00 -1.0000e+00
</event>
<event>
10      1 +4.6527485e-10 2.40000000e+02 7.81860800e-03 1.03012300e-01
      -11 -1    0    0    0    0 +0.0000000000e+00 +0.0000000000e+00 +1.2000000000e+02 1.2000000000e+02 0.0000000000e+00 0.0000e+00 1.0000e+00
       11 -1    0    0    0    0 -0.0000000000e+00 -0.0000000000e+00 -1.2000000000e+02 1.2000000000e+02 0.0000000000e+00 0.0000e+00 -1.0000e+00
       23  2    1    2    0    0 -3.6711301445e+01 -1.6777891299e+01 +3.1209121057e+01 1.0499613106e+02 9.1765794339e+01 0.0000e+00 0.0000e+00
       25  2    1    2    0    0 +3.6711301445e+01 +1.6777891299e+01 -3.1209121057e+01 1.3500386894e+02 1.2499127210e+02 0.0000e+00 0.0000e+00
      -13  1    3    3    0    0 -2.0569036811e+01 +3.0108987353e+01 +4.0552554733e+01 5.4535732233e+01 0.0000000000e+00 0.0000e+00 1.0000e+00
       13  1    3    3    0    0 -1.6142264634e+01 -4.6886878652e+01 -9.3434336768e+00 5.0460398830e+01 0.0000000000e+00 0.0000e+00 -1.0000e+00
        5  1    4    4  501    0 -3.1553227940e+01 -1.5831988920e+01 -2.5224802557e+01 4.3642166887e+01 4.7000000000e+00 0.0000e+00 1.0000e+00
       -5  1    4    4    0  501 -4.2481511814e+00 -3.8490550255e+00 +1.6364905528e+00 7.5914500841e+00 4.7000000000e+00 0.0000e+00 1.0000e+00
        5  1    4    4  502    0 +4.7311427250e+01 +1.4647894289e+01 -5.3114342796e+00 5.0032322449e+01 4.7000000000e+00 0.0000e+00 1.0000e+00
       -5  1    4    4    0  502 +2.5201253317e+01 +2.1811040955e+01 -2.3093747734e+00 3.3737929517e+01 4.7000000000e+00 0.0000e+00 1.0000e+00
</event>
<event>
10      1 +4.6527485e-10 2.40000000e+02 7.81860800e-03 1.03012300e-01
      -11 -1    0    0    0    0 +0.0000000000e+00 +0.0000000000e+00 +1.2000000000e+02 1.2000000000e+02 0.0000000000e+00 0.0000e+00 1.0000e+00
       11 -1    0    0    0    0 -0.0000000000e+00 -0.0000000000e+00 -1.2000000000e+02 1.2000000000e+02 0.0000000000e+00 0.0000e+00 -1.0000e+00
       23  2    1    2    0    0 +4.2001185252e+01 +1.8719324354e+01 -2.2351513792e+01 1.0495062380e+02 9.1654408516e+01 0.0000e+00 0.0000e+00
       25  2    1    2    0    0 -4.2001185252e+01 -1.8719324354e+01 +2.2351513792e+01 1.3504937620e+02 1.2499692467e+02 0.0000e+00 0.0000e+00
      -11  1    3    3    0    0 +1.9371781562e+01 +3.6141067141e+00 -5.7338147950e+01 6.0629950508e+01 0.0000000000e+00 0.0000e+00 -1.0000e+00
       11  1    3    3    0    0 +2.2629403691e+01 +1.5105217639e+01 +3.4986634158e+01 4.4320673292e+01 0.0000000000e+00 0.0000e+00 1.0000e+00
        5  1    4    4  501    0 +6.1830481132e+00 -3.4558858930e+01 +2.5604565045e+01 4.3706161644e+01 4.7000000000e+00 0.0000e+00 1.0000e+00
       -5  1    4    4    0  501 -1.4165941088e+01 -2.8837568223e+01 -1.4103754699e+00 3.2501667448e+01 4.7000000000e+00 0.0000e+00 1.0000e+00
        5  1    4    4  502    0 -1.3707464306e+00 +4.2714966740e+00 -1.5591663827e+00 6.6817385030e+00 4.7000000000e+00 0.0000e+00 -1.0000e+00
       -5  1    4    4    0  502 -3.2647545847e+01 +4.0405606125e+01 -2.8350939983e-01 5.2159808605e+01 4.7000000000e+00 0.0000e+00 1.0000e+00
</event>
<event>
10      1 +4.6527485e-10 2.40000000e+02 7.81860800e-03 1.03012300e-01
      -11 -1    0    0    0    0 +0.0000000000e+00 +0.0000000000e+00 +1.2000000000e+02 1.2000000000e+02 0.0000000000e+00 0.0000e+00 -1.0000e+00
       11 -1    0    0    0    0 -0.0000000000e+00 -0.0000000000e+00 -1.2000000000e+02 1.2000000000e+02 0.0000000000e+00 0.0000e+00 1.0000e+00
       23  2    1    2    0    0 -3.0188356681e+01 -3.2470261783e+00 +4.4552134894e+01 1.0386809288e+02 8.8779546840e+01 0.0000e+00 0.0000e+00
       25  2    1    2    0    0 +3.0188356681e+01 +3.2470261783e+00 -4.4552134894e+01 1.3613190712e+02 1.2500049341e+02 0.0000e+00 0.0000e+00
      -13  1    3    3    0    0 -5.0917479371e+01 +1.4207826776e+01 +5.3615644347e+01 7.5293355390e+01 0.0000000000e+00 0.0000e+00 1.0000e+00
       13  1    3    3    0    0 +2.0729122689e+01 -1.7454852954e+01 -9.0635094526e+00 2.8574737492e+01 0.0000000000e+00 0.0000e+00 -1.0000e+00
        5  1    4    4  501    0 -2.8003715608e+01 +2.5719310851e+01 +7.9115399404e+00 3.9119988532e+01 4.7000000000e+00 0.0000e+00 -1.0000e+00
       -5  1    4    4    0  501 +4.1458904970e+00 +4.5295389287e+00 +6.0941731412e+00 9.8455105097e+00 4.7000000000e+00 0.0000e+00 -1.0000e+00
        5  1    4    4  502    0 +1.8226143216e+01 -1.8442680669e+01 -1.6617454251e+01 3.1153724538e+01 4.7000000000e+00 0.0000e+00 1.0000e+00
       -5  1    4    4    0  502 +3.5820038577e+01 -8.5591429330e+00 -4.1940393725e+01 5.6012683538e+01 4.7000000000e+00 0.0000e+00 1.0000e+00
</event>
<event>
10      1 +4.6527485e-10 2.40000000e+02 7.81860800e-03 1.03012300e-01
      -11 -1    0    0    0    0 +0.0000000000e+00 +0.0000000000e+00 +1.2000000000e+02 1.2000000000e+02 0.0000000000e+00 0.0000e+00 -1.0000e+00
       11 -1    0    0    0    0 -0.0000000000e+00 -0.0000000000e+00 -1.2000000000e+02 1.2000000000e+02 0.0000000000e+00 0.0000e+00 1.0000e+00
       23  2    1    2    0    0 -3.2449455650e+01 +3.7859480496e+01 -1.5516688682e+01 1.0453031056e+02 9.0551149985e+01 0.0000e+00 0.0000e+00
       25  2    1    2    0    0 +3.2449455650e+01 -3.7859480496e+01 +1.5516688682e+01 1.3546968944e+02 1.2499984677e+02 0.0000e+00 0.0000e+00
      -11  1    3    3    0    0 +2.2594084171e+01 +4.0680461486e+01 -1.6594058911e+01 4.9404001633e+01 0.0000000000e+00 0.0000e+00 1.0000e+00
       11  1    3    3    0    0 -5.5043539821e+01 -2.8209809902e+00 +1.0773702296e+00 5.5126308931e+01 0.0000000000e+00 0.0000e+00 -1.0000e+00
        5  1    4    4  501    0 +3.6639231616e+01 -2.9939500486e+01 -1.4314757898e+01 4.9656915696e+01 4.7000000000e+00 0.0000e+00 -1.0000e+00
       -5  1    4    4    0  502 -1.8929664918e+01 -1.1204203815e+00 +2.2059568863e+01 2.9466966830e+01 4.7000000000e+00 0.0000e+00 1.0000e+00
        5  1    4    4  502    0 -8.5853393775e+00 -1.5311528493e+01 +2.1041797553e+01 2.7802845202e+01 4.7000000000e+00 0.0000e+00 1.0000e+00
       -5  1    4    4    0  501 +2.3325228330e+01 +8.5119688645e+00 -1.3269919837e+01 2.8542961708e+01 4.7000000000e+00 0.0000e+00 -1.0000e+00
</event>
<event>
10      1 +4.6527485e-10 2.40000000e+02 7.81860800e-03 1.03012300e-01
      -11 -1    0    0    0    0 +0.0000000000e+00 +0.0000000000e+00 +1.2000000000e+02 1.2000000000e+02 0.0000000000e+00 0.0000e+00 1.0000e+00
       11 -1    0    0    0    0 -0.0000000000e+00 -0.0000000000e+00 -1.2000000000e+02 1.2000000000e+02 0.0000000000e+00 0.0000e+00 -1.0000e+00
       23  2    1    2    0    0 +4.2092496291e+01 +2.4181203858e+01 +1.7706123666e+01 1.0474447660e+02 9.1111962432e+01 0.0000e+00 0.0000e+00
       25  2    1    2    0    0 -4.2092496291e+01 -2.4181203858e+01 -1.7706123666e+01 1.3525552340e+02 1.2499616367e+02 0.0000e+00 0.0000e+00
      -11  1    3    3    0    0 +4.3897233016e+01 +5.5559691508e+01 +1.8913419909e+01 7.3290953327e+01 0.0000000000e+00 0.0000e+00 1.0000e+00
       11  1    3    3    0    0 -1.8047367249e+00 -3.1378487650e+01 -1.2072962426e+00 3.1453523270e+01 0.0000000000e+00 0.0000e+00 -1.0000e+00
        5  1    4    4  501    0 -2.4091997908e+01 +3.2570793990e+01 -4.1161024706e+01 5.7944809424e+01 4.7000000000e+00 0.0000e+00 1.0000e+00
       -5  1    4    4    0  502 -4.0932535303e+00 -7.1667614211e+00 +9.9141348450e+00 1.3729430558e+01 4.7000000000e+00 0.0000e+00 1.0000e+00
        5  1    4    4  502    0 +1.6821101890e-01 +4.1864447088e+00 +6.5345973639e-01 6.3302151523e+00 4.7000000000e+00 0.0000e+00 1.0000e+00
       -5  1    4    4    0  501 -1.4075455871e+01 -5.3771681136e+01 +1.2887306458e+01 5.7251068269e+01 4.7000000000e+00 0.0000e+00 1.0000e+00
</event>
<event>
10      1 +4.6527485e-10 2.40000000e+02 7.81860800e-03 1.03012300e-01
      -11 -1    0    0    0    0 +0.0000000000e+00 +0.0000000000e+00 +1.2000000000e+02 1.2000000000e+02 0.0000000000e+00 0.0000e+00 1.0000e+00
       11 -1    0    0    0    0 -0.0000000000e+00 -0.0000000000e+00 -1.2000000000e+02 1.2000000000e+02 0.0000000000e+00 0.0000e+00 -1.0000e+00
       23  2    1    2    0    0 +2.6282667670e+01 -1.4729689288e+01 -3.9799330132e+01 1.0540259417e+02 9.2833064215e+01 0.0000e+00 0.0000e+00
       25  2    1    2    0    0 -2.6282667670e+01 +1.4729689288e+01 +3.9799330132e+01 1.3459740583e+02 1.2499893044e+02 0.0000e+00 0.0000e+00
      -11  1    3    3    0    0 +2.8115101931e+01 -1.1412540303e+01 +2.5717925393e+01 3.9775830843e+01 0.0000000000e+00 0.0000e+00 1.0000e+00
       11  1    3    3    0    0 -1.8324342616e+00 -3.3171489852e+00 -6.5517255525e+01 6.5626763322e+01 0.0000000000e+00 0.0000e+00 -1.0000e+00
        5  1    4    4  501    0 -9.5309007349e-01 +1.0148657413e+01 +2.2789523674e+01 2.5403858315e+01 4.7000000000e+00 0.0000e+00 1.0000e+00
       -5  1    4    4    0  501 +1.8521655526e+01 +9.6906619585e+00 +4.7167064530e+01 5.1805237467e+01 4.7000000000e+00 0.0000e+00 1.0000e+00
        5  1    4    4  502    0 -1.8775344094e+01 -9.3088520059e+00 -2.0780936794e+01 2.9884872520e+01 4.7000000000e+00 0.0000e+00 1.0000e+00
       -5  1    4    4    0  502 -2.5075889029e+01 +4.1992219225e+00 -9.3763212793e+00 2.7503437532e+01 4.7000000000e+00 0.0000e+00 1.0000e+00
</event>
<event>
10      1 +4.6527485e-10 2.40000000e+02 7.81860800e-03 1.03012300e-01
      -11 -1    0    0    0    0 +0.0000000000e+00 +0.0000000000e+00 +1.2000000000e+02 1.2000000000e+02 0.0000000000e+00 0.0000e+00 1.0000e+00
       11 -1    0    0    0    0 -0.0000000000e+00 -0.0000000000e+00 -1.2000000000e+02 1.2000000000e+02 0.0000000000e+00 0.0000e+00 -1.0000e+00
       23  2    1    2    0    0 +2.9517591896e+01 +3.1208937537e+01 +2.8294071085e+01 1.0482568989e+02 9.1337751170e+01 0.0000e+00 0.0000e+00
       25  2    1    2    0    0 -2.9517591896e+01 -3.1208937537e+01 -2.8294071085e+01 1.3517431011e+02 1.2500501447e+02 0.0000e+00 0.0000e+00
      -13  1    3    3    0    0 -2.7445298742e+01 +3.3880090883e+01 +1.6325298688e+01 4.6557709980e+01 0.0000000000e+00 0.0000e+00 -1.0000e+00
       13  1    3    3    0    0 +5.6962890639e+01 -2.6711533459e+00 +1.1968772396e+01 5.8267979910e+01 0.0000000000e+00 0.0000e+00 1.0000e+00
        5  1    4    4  501    0 -1.0644688991e+01 +3.0163815515e+00 +4.6863450470e+00 1.2901929750e+01 4.7000000000e+00 0.0000e+00 1.0000e+00
       -5  1    4    4    0  501 -1.2388089488e+01 -5.5643262721e-01 -1.3164406789e+01 1.8685983639e+01 4.7000000000e+00 0.0000e+00 1.0000e+00
        5  1    4    4  502    0 +8.2481092171e+00 -6.4732891449e+01 -4.2751242575e+00 6.5564817001e+01 4.7000000000e+00 0.0000e+00 1.0000e+00
       -5  1    4    4    0  502 -1.4732922634e+01 +3.1064004987e+01 -1.5540885085e+01 3.8021579720e+01 4.7000000000e+00 0.0000e+00 1.0000e+00
</event>
<event>
10      1 +4.6527485e-10 2.40000000e+02 7.81860800e-03 1.03012300e-01
      -11 -1    0    0    0    0 +0.0000000000e+00 +0.0000000000e+00 +1.2000000000e+02 1.2000000000e+02 0.0000000000e+00 0.0000e+00 1.0000e+00
       11 -1    0    0    0    0 -0.0000000000e+00 -0.0000000000e+00 -1.2000000000e+02 1.2000000000e+02 0.0000000000e+00 0.0000e+00 -1.0000e+00
       23  2    1    2    0    0 -9.9905009765e+00 -2.5113704328e+01 +4.3411212335e+01 1.0494469450e+02 9.1642497201e+01 0.0000e+00 0.0000e+00
       25  2    1    2    0    0 +9.9905009765e+00 +2.5113704328e+01 -4.3411212335e+01 1.3505530550e+02 1.2499957572e+02 0.0000e+00 0.0000e+00
      -13  1    3    3    0    0 +9.3627299736e+00 -6.3637660387e+00 +6.7716462038e+01 6.8656226678e+01 0.0000000000e+00 0.0000e+00 1.0000e+00
       13  1    3    3    0    0 -1.9353230950e+01 -1.8749938289e+01 -2.4305249703e+01 3.6288467826e+01 0.0000000000e+00 0.0000e+00 -1.0000e+00
        5  1    4    4  501    0 -3.3706297116e+01 +4.5629344801e+01 -3.9862691697e+01 6.9492990737e+01 4.7000000000e+00 0.0000e+00 1.0000e+00
       -5  1    4    4    0  502 +2.6877546974e+01 -2.1463911781e+01 +1.0693013747e+01 3.6325371069e+01 4.7000000000e+00 0.0000e+00 -1.0000e+00
        5  1    4    4  502    0 +1.0728602747e+01 +2.4134430341e+00 +1.1026615625e+00 1.2009724672e+01 4.7000000000e+00 0.0000e+00 -1.0000e+00
       -5  1    4    4    0  501 +6.0906483721e+00 -1.4651717263e+00 -1.5344195948e+01 1.7227219018e+01 4.7000000000e+00 0.0000e+00 1.0000e+00
</event>
<event>
10      1 +4.6527485e-10 2.40000000e+02 7.81860800e-03 1.03012300e-01
      -11 -1    0    0    0    0 +0.0000000000e+00 +0.0000000000e+00 +1.2000000000e+02 1.2000000000e+02 0.0000000000e+00 0.0000e+00 -1.0000e+00
       11 -1    0    0    0    0 -0.0000000000e+00 -0.0000000000e+00 -1.2000000000e+02 1.2000000000e+02 0.0000000000e+00 0.0000e+00 1.0000e+00
       23  2    1    2    0    0 +1.8889969734e+01 +4.6762172069e+01 -1.0993513284e+01 1.0475895112e+02 9.1159469133e+01 0.0000e+00 0.0000e+00
       25  2    1    2    0    0 -1.8889969734e+01 -4.6762172069e+01 +1.0993513284e+01 1.3524104888e+02 1.2500300906e+02 0.0000e+00 0.0000e+00
      -11  1    3    3    0    0 -3.0125021857e+01 +3.8585721718e+01 -2.2305989947e+01 5.3795279067e+01 0.0000000000e+00 0.0000e+00 1.0000e+00
       11  1    3    3    0    0 +4.9014991591e+01 +8.1764503514e+00 +1.1312476663e+01 5.0963672055e+01 0.0000000000e+00 0.0000e+00 -1.0000e+00
        5  1    4    4  501    0 +8.8717195779e+00 +6.1512517843e+00 +8.1845284345e+00 1.4339519255e+01 4.7000000000e+00 0.0000e+00 -1.0000e+00
       -5  1    4    4    0  501 +3.1486750707e+01 -1.0389021483e+01 +2.3722934038e+01 4.1039186601e+01 4.7000000000e+00 0.0000e+00 -1.0000e+00
        5  1    4    4  502    0 -2.7714440662e+01 -3.2021885505e+01 -5.6336378437e+00 4.2980451928e+01 4.7000000000e+00 0.0000e+00 -1.0000e+00
       -5  1    4    4    0  502 -3.1533999357e+01 -1.0502516865e+01 -1.5280311346e+01 3.6881891095e+01 4.7000000000e+00 0.0000e+00 -1.0000e+00
</event>
<event>
10      1 +4.6527485e-10 2.40000000e+02 7.81860800e-03 1.03012300e-01
      -11 -1    0    0    0    0 +0.0000000000e+00 +0.0000000000e+00 +1.2000000000e+02 1.2000000000e+02 0.0000000000e+00 0.0000e+00 1.0000e+00
       11 -1    0    0    0    0 -0.0000000000e+00 -0.0000000000e+00 -1.2000000000e+02 1.2000000000e+02 0.0000000000e+00 0.0000e+00 -1.0000e+00
       23  2    1    2    0    0 +4.3644443551e+01 -2.5629326214e+01 -1.9082613651e+00 1.0512817590e+02 9.2122701284e+01 0.0000e+00 0.0000e+00
       25  2    1    2    0    0 -4.3644443551e+01 +2.5629326214e+01 +1.9082613651e+00 1.3487182410e+02 1.2500027064e+02 0.0000e+00 0.0000e+00
      -13  1    3    3    0    0 -2.2659672691e+01 -3.0882719990e+01 -4.4889096796e+00 3.8566221885e+01 0.0000000000e+00 0.0000e+00 -1.0000e+00
       13  1    3    3    0    0 +6.6304116242e+01 +5.2533937751e+00 +2.5806483145e+00 6.6561954016e+01 0.0000000000e+00 0.0000e+00 1.0000e+00
        5  1    4    4  501    0 +1.6383368068e+01 -1.4144232538e+01 -1.0600342420e+01 2.4554659899e+01 4.7000000000e+00 0.0000e+00 1.0000e+00
       -5  1    4    4    0  502 -5.7205571063e+01 +1.9761772056e+01 +6.0367221508e+00 6.1004401560e+01 4.7000000000e+00 0.0000e+00 -1.0000e+00
        5  1    4    4  502    0 -2.1113684211e+01 +1.8854390439e+01 +9.3386665401e+00 3.0175758359e+01 4.7000000000e+00 0.0000e+00 -1.0000e+00
       -5  1    4    4    0  501 +1.8291443656e+01 +1.1573962572e+00 -2.8667849059e+00 1.9137004280e+01 4.7000000000e+00 0.0000e+00 1.0000e+00
</event>
<event>
10      1 +4.6527485e-10 2.40000000e+02 7.81860800e-03 1.03012300e-01
      -11 -1    0    0    0    0 +0.0000000000e+00 +0.0000000000e+00 +1.2000000000e+02 1.2000000000e+02 0.0000000000e+00 0.0000e+00 -1.0000e+00
       11 -1    0    0    0    0 -0.0000000000e+00 -0.0000000000e+00 -1.2000000000e+02 1.2000000000e+02 0.0000000000e+00 0.0000e+00 1.0000e+00
       23  2    1    2    0    0 +3.4871728056e+01 +2.2756291422e+01 +3.6164054557e+01 1.0336942710e+02 8.7427189136e+01 0.0000e+00 0.0000e+00
       25  2    1    2    0    0 -3.4871728056e+01 -2.2756291422e+01 -3.6164054557e+01 1.3663057290e+02 1.2500475348e+02 0.0000e+00 0.0000e+00
      -13  1    3    3    0    0 +4.6009008636e+01 +3.6631493904e+01 +5.2782487723e+01 7.9023327135e+01 0.0000000000e+00 0.0000e+00 -1.0000e+00
       13  1    3    3    0    0 -1.1137280580e+01 -1.3875202482e+01 -1.6618433166e+01 2.4346099966e+01 0.0000000000e+00 0.0000e+00 1.0000e+00
        5  1    4    4  501    0 -3.2650838989e+01 +9.7775239280e+00 +1.4172612257e+01 3.7210619439e+01 4.7000000000e+00 0.0000e+00 -1.0000e+00
       -5  1    4    4    0  501 -6.3948319780e+00 +5.4404078104e+00 +1.2949135702e+01 1.6132638613e+01 4.7000000000e+00 0.0000e+00 -1.0000e+00
        5  1    4    4  502    0 +7.8916792559e+00 +2.0826236350e+00 -2.8097383778e+01 2.9633914656e+01 4.7000000000e+00 0.0000e+00 1.0000e+00
       -5  1    4    4    0  502 -3.7177363452e+00 -4.0056846795e+01 -3.5188418739e+01 5.3653400191e+01 4.7000000000e+00 0.0000e+00 1.0000e+00
</event>
<event>
10      1 +4.6527485e-10 2.40000000e+02 7.81860800e-03 1.03012300e-01
      -11 -1    0    0    0    0 +0.0000000000e+00 +0.0000000000e+00 +1.2000000000e+02 1.2000000000e+02 0.0000000000e+00 0.0000e+00 1.0000e+00
       11 -1    0    0    0    0 -0.0000000000e+00 -0.0000000000e+00 -1.2000000000e+02 1.2000000000e+02 0.0000000000e+00 0.0000e+00 -1.0000e+00
       23  2    1    2    0    0 +2.9130966276e+01 -1.5830544530e+01 +3.8906071171e+01 1.0492625705e+02 9.1633060129e+01 0.0000e+00 0.0000e+00
       25  2    1    2    0    0 -2.9130966276e+01 +1.5830544530e+01 -3.8906071171e+01 1.3507374295e+02 1.2502805415e+02 0.0000e+00 0.0000e+00
      -13  1    3    3    0    0 -1.5059881991e+01 +2.5057690117e+00 +5.2915070556e+01 5.5073438388e+01 0.0000000000e+00 0.0000e+00 1.0000e+00
       13  1    3    3    0    0 +4.4190848268e+01 -1.8336313542e+01 -1.4008999385e+01 4.9852818663e+01 0.0000000000e+00 0.0000e+00 -1.0000e+00
        5  1    4    4  501    0 +5.1727613646e+00 +5.6475613841e+00 -1.8397568714e+01 2.0474690335e+01 4.7000000000e+00 0.0000e+00 1.0000e+00
       -5  1    4    4    0  502 -2.4232424967e+01 -1.9295930578e+01 -1.0111855439e+01 3.2922378059e+01 4.7000000000e+00 0.0000e+00 1.0000e+00
        5  1    4    4  502    0 -3.1747501937e+01 -7.2465216823e+00 +9.6973500920e+00 3.4300795247e+01 4.7000000000e+00 0.0000e+00 1.0000e+00
       -5  1    4    4    0  501 +2.1676199264e+01 +3.6725435406e+01 -2.0093997110e+01 4.7375879307e+01 4.7000000000e+00 0.0000e+00 -1.0000e+00
</event>
<event>
10      1 +4.6527485e-10 2.40000000e+02 7.81860800e-03 1.03012300e-01
      -11 -1    0    0    0    0 +0.0000000000e+00 +0.0000000000e+00 +1.2000000000e+02 1.2000000000e+02 0.0000000000e+00 0.0000e+00 -1.0000e+00
       11 -1    0    0    0    0 -0.0000000000e+00 -0.0000000000e+00 -1.2000000000e+02 1.2000000000e+02 0.0000000000e+00 0.0000e+00 1.0000e+00
       23  2    1    2    0    0 -3.0022020174e+01 -3.0770570696e+01 -2.9601748368e+01 1.0454156468e+02 9.0578835956e+01 0.0000e+00 0.0000e+00
       25  2    1    2    0    0 +3.0022020174e+01 +3.0770570696e+01 +2.9601748368e+01 1.3545843532e+02 1.2499829789e+02 0.0000e+00 0.0000e+00
      -11  1    3    3    0    0 -5.3466891772e+01 +8.8766021477e+00 -1.6461687425e+01 5.6643532149e+01 0.0000000000e+00 0.0000e+00 -1.0000e+00
       11  1    3    3    0    0 +2.3444871598e+01 -3.9647172844e+01 -1.3140060943e+01 4.7898032531e+01 0.0000000000e+00 0.0000e+00 1.0000e+00
        5  1    4    4  501    0 -1.2777399711e+00 +3.3143166737e+00 -1.1858166549e+01 1.3240975355e+01 4.7000000000e+00 0.0000e+00 1.0000e+00
       -5  1    4    4    0  502 +7.5230790303e+00 +2.4025432846e+01 +3.9194930360e+01 4.6820409092e+01 4.7000000000e+00 0.0000e+00 1.0000e+00
        5  1    4    4  502    0 +2.0990520595e+01 +2.6407989160e+01 +2.5282677105e+01 4.2418010419e+01 4.7000000000e+00 0.0000e+00 1.0000e+00
       -5  1    4    4    0  501 +2.7861605197e+00 -2.2977167984e+01 -2.3017692548e+01 3.2979040454e+01 4.7000000000e+00 0.0000e+00 1.0000e+00
</event>
<event>
10      1 +4.6527485e-10 2.40000000e+02 7.81860800e-03 1.03012300e-01
      -11 -1    0    0    0    0 +0.0000000000e+00 +0.0000000000e+00 +1.2000000000e+02 1.2000000000e+02 0.0000000000e+00 0.0000e+00 1.0000e+00
       11 -1    0    0    0    0 -0.0000000000e+00 -0.0000000000e+00 -1.2000000000e+02 1.2000000000e+02 0.0000000000e+00 0.0000e+00 -1.0000e+00
       23  2    1    2    0    0 +1.2664645325e+01 -3.0108167080e+01 +1.8737172920e+01 1.0945589259e+02 1.0277458737e+02 0.0000e+00 0.0000e+00
       25  2    1    2    0    0 -1.2664645325e+01 +3.0108167080e+01 -1.8737172920e+01 1.3054410741e+02 1.2499514936e+02 0.0000e+00 0.0000e+00
      -13  1    3    3    0    0 -4.3909827820e+01 -2.4630393358e+01 +1.4820071107e+01 5.2482032771e+01 0.0000000000e+00 0.0000e+00 -1.0000e+00
       13  1    3    3    0    0 +5.6574473145e+01 -5.4777737213e+00 +3.9171018136e+00 5.6973859823e+01 0.0000000000e+00 0.0000e+00 1.0000e+00
        5  1    4    4  501    0 +4.6665798893e+00 +5.1592316087e+01 -1.6814799847e+01 5.4665999863e+01 4.7000000000e+00 0.0000e+00 -1.0000e+00
       -5  1    4    4    0  501 +5.0206889079e+00 +1.7201775987e+01 -1.6197934624e+01 2.4608362406e+01 4.7000000000e+00 0.0000e+00 -1.0000e+00
        5  1    4    4  502    0 -8.3259153035e+00 -1.0363083759e+01 +1.3175611362e+01 1.9297696894e+01 4.7000000000e+00 0.0000e+00 -1.0000e+00
       -5  1    4    4    0  502 -1.4025998818e+01 -2.8322841235e+01 +1.0999501879e+00 3.1972048243e+01 4.7000000000e+00 0.0000e+00 -1.0000e+00
</event>
<event>
10      1 +4.6527485e-10 2.40000000e+02 7.81860800e-03 1.03012300e-01
      -11 -1    0    0    0    0 +0.0000000000e+00 +0.0000000000e+00 +1.2000000000e+02 1.2000000000e+02 0.0000000000e+00 0.0000e+00 1.0000e+00
       11 -1    0    0    0    0 -0.0000000000e+00 -0.0000000000e+00 -1.2000000000e+02 1.2000000000e+02 0.0000000000e+00 0.0000e+00 -1.0000e+00
       23  2    1    2    0    0 -3.8591083198e+01 -2.9365917507e+01 -1.7905928256e+01 1.0473490290e+02 9.1088686482e+01 0.0000e+00 0.0000e+00
       25  2    1    2    0    0 +3.8591083198e+01 +2.9365917507e+01 +1.7905928256e+01 1.3526509710e+02 1.2499758163e+02 0.0000e+00 0.0000e+00
      -11  1    3    3    0    0 -1.6186703833e+00 +2.5613830588e+01 +1.6065249470e+01 3.0278385884e+01 0.0000000000e+00 0.0000e+00 1.0000e+00
       11  1    3    3    0    0 -3.6972412815e+01 -5.4979748095e+01 -3.3971177726e+01 7.4456517015e+01 0.0000000000e+00 0.0000e+00 -1.0000e+00
        5  1    4    4  501    0 +2.9403458704e+01 -1.5973893481e+01 +7.9873559301e+00 3.4721988875e+01 4.7000000000e+00 0.0000e+00 -1.0000e+00
       -5  1    4    4    0  501 +3.5587793981e+01 -1.5970899086e+00 +2.3194008252e+01 4.2767906137e+01 4.7000000000e+00 0.0000e+00 -1.0000e+00
        5  1    4    4  502    0 -1.0959213561e+01 +8.8121510362e+00 -3.3187807674e+00 1.5194165774e+01 4.7000000000e+00 0.0000e+00 -1.0000e+00
       -5  1    4    4    0  502 -1.5440955925e+01 +3.8124749860e+01 -9.9566551591e+00 4.2581036316e+01 4.7000000000e+00 0.0000e+00 -1.0000e+00
</event>
<event>
10      1 +4.6527485e-10 2.40000000e+02 7.81860800e-03 1.03012300e-01
      -11 -1    0    0    0    0 +0.0000000000e+00 +0.0000000000e+00 +1.2000000000e+02 1.2000000000e+02 0.0000000000e+00 0.0000e+00 1.0000e+00
       11 -1    0    0    0    0 -0.0000000000e+00 -0.0000000000e+00 -1.2000000000e+02 1.2000000000e+02 0.0000000000e+00 0.0000e+00 -1.0000e+00
       23  2    1    2    0    0 -2.6443767448e+01 +4.3150493644e+01 +6.6357481857e+00 1.0498380704e+02 9.1740550725e+01 0.0000e+00 0.0000e+00
       25  2    1    2    0    0 +2.6443767448e+01 -4.3150493644e+01 -6.6357481857e+00 1.3501619296e+02 1.2499640503e+02 0.0000e+00 0.0000e+00
      -13  1    3    3    0    0 +1.7797857953e+01 -2.0567972896e+01 +2.0622148482e+00 2.7277426324e+01 0.0000000000e+00 0.0000e+00 1.0000e+00
       13  1    3    3    0    0 -4.4241625400e+01 +6.3718466541e+01 +4.5735333375e+00 7.7706380713e+01 0.0000000000e+00 0.0000e+00 -1.0000e+00
        5  1    4    4  501    0 +1.3869272980e+01 -1.0535735002e+01 -4.8375623089e+00 1.8677538760e+01 4.7000000000e+00 0.0000e+00 1.0000e+00
       -5  1    4    4    0  502 -1.4662868533e+01 +1.9256351032e+01 +1.6579589841e+01 2.9711606620e+01 4.7000000000e+00 0.0000e+00 1.0000e+00
        5  1    4    4  502    0 -2.5677394475e+00 +1.6135519941e+00 +1.5510461361e+01 1.6488215414e+01 4.7000000000e+00 0.0000e+00 1.0000e+00
       -5  1    4    4    0  501 +2.9805102448e+01 -5.3484661668e+01 -3.3888237079e+01 7.0138832169e+01 4.7000000000e+00 0.0000e+00 1.0000e+00
</event>
<event>
10      1 +4.6527485e-10 2.40000000e+02 7.81860800e-03 1.03012300e-01
      -11 -1    0    0    0    0 +0.0000000000e+00 +0.0000000000e+00 +1.2000000000e+02 1.2000000000e+02 0.0000000000e+00 0.0000e+00 1.0000e+00
       11 -1    0    0    0    0 -0.0000000000e+00 -0.0000000000e+00 -1.2000000000e+02 1.2000000000e+02 0.0000000000e+00 0.0000e+00 -1.0000e+00
       23  2    1    2    0    0 -3.8983211778e+01 -7.8237665220e-02 +3.5149089416e+01 1.0443146571e+02 9.0281646093e+01 0.0000e+00 0.0000e+00
       25  2    1    2    0    0 +3.8983211778e+01 +7.8237665220e-02 -3.5149089416e+01 1.3556853429e+02 1.2499468821e+02 0.0000e+00 0.0000e+00
      -13  1    3    3    0    0 -1.4751366882e+01 -4.6045678816e+00 +6.4371454985e+01 6.6200370748e+01 0.0000000000e+00 0.0000e+00 1.0000e+00
       13  1    3    3    0    0 -2.4231844896e+01 +4.5263302164e+00 -2.9222365569e+01 3.8231094959e+01 0.0000000000e+00 0.0000e+00 -1.0000e+00
        5  1    4    4  501    0 +5.0864725382e-01 +4.8268732360e+01 +8.9219555594e+00 4.9313492441e+01 4.7000000000e+00 0.0000e+00 -1.0000e+00
       -5  1    4    4    0  501 -1.6568686338e+00 +2.8040614587e-01 +1.7983219220e+00 5.3054503118e+00 4.7000000000e+00 0.0000e+00 -1.0000e+00
        5  1    4    4  502    0 +3.3896157590e+00 -1.2280297200e+01 -1.6663289592e+01 2.1495357972e+01 4.7000000000e+00 0.0000e+00 -1.0000e+00
       -5  1    4    4    0  502 +3.6741817399e+01 -3.6190603640e+01 -2.9206077305e+01 5.9454233568e+01 4.7000000000e+00 0.0000e+00 -1.0000e+00
</event>
<event>
10      1 +4.6527485e-10 2.40000000e+02 7.81860800e-03 1.03012300e-01
      -11 -1    0    0    0    0 +0.0000000000e+00 +0.0000000000e+00 +1.2000000000e+02 1.2000000000e+02 0.0000000000e+00 0.0000e+00 1.0000e+00
       11 -1    0    0    0    0 -0.0000000000e+00 -0.0000000000e+00 -1.2000000000e+02 1.2000000000e+02 0.0000000000e+00 0.0000e+00 -1.0000e+00
       23  2    1    2    0    0 +4.8591919571e+01 +1.9433364645e+01 -2.4443714987e-01 1.0448307480e+02 9.0431315709e+01 0.0000e+00 0.0000e+00
       25  2    1    2    0    0 -4.8591919571e+01 -1.9433364645e+01 +2.4443714987e-01 1.3551692520e+02 1.2500378777e+02 0.0000e+00 0.0000e+00
      -11  1    3    3    0    0 +5.5081342920e+00 +1.5624243530e+01 +4.1307439587e+01 4.4505742264e+01 0.0000000000e+00 0.0000e+00 1.0000e+00
       11  1    3    3    0    0 +4.3083785279e+01 +3.8091211152e+00 -4.1551876737e+01 5.9977332535e+01 0.0000000000e+00 0.0000e+00 -1.0000e+00
        5  1    4    4  501    0 -3.8879732744e+01 -2.9997239828e+01 -3.4285979055e+01 6.0075672075e+01 4.7000000000e+00 0.0000e+00 -1.0000e+00
       -5  1    4    4    0  502 -1.0947951670e+01 +1.1521426563e+00 +2.7124812511e+01 2.9648449069e+01 4.7000000000e+00 0.0000e+00 -1.0000e+00
        5  1    4    4  502    0 +7.2126273630e+00 +2.4923987441e+01 +1.0238027601e+01 2.8286646188e+01 4.7000000000e+00 0.0000e+00 -1.0000e+00
       -5  1    4    4    0  501 -5.9768625205e+00 -1.5512254915e+01 -2.8324239070e+00 1.7506157868e+01 4.7000000000e+00 0.0000e+00 -1.0000e+00
</event>
<event>
10      1 +4.6527485e-10 2.40000000e+02 7.81860800e-03 1.03012300e-01
      -11 -1    0    0    0    0 +0.0000000000e+00 +0.0000000000e+00 +1.2000000000e+02 1.2000000000e+02 0.0000000000e+00 0.0000e+00 -1.0000e+00
       11 -1    0    0    0    0 -0.0000000000e+00 -0.0000000000e+00 -1.2000000000e+02 1.2000000000e+02 0.0000000000e+00 0.0000e+00 1.0000e+00
       23  2    1    2    0    0 -4.0805096755e+01 +1.4051312608e+01 +2.6994237424e+01 1.0503483562e+02 9.1875636234e+01 0.0000e+00 0.0000e+00
       25  2    1    2    0    0 +4.0805096755e+01 -1.4051312608e+01 -2.6994237424e+01 1.3496516438e+02 1.2499764571e+02 0.0000e+00 0.0000e+00
      -11  1    3    3    0    0 +2.8682313591e+00 -2.4967130868e+01 -1.8225303043e+01 3.1044259468e+01 0.0000000000e+00 0.0000e+00 1.0000e+00
       11  1    3    3    0    0 -4.3673328114e+01 +3.9018443476e+01 +4.5219540467e+01 7.3990576156e+01 0.0000000000e+00 0.0000e+00 -1.0000e+00
        5  1    4    4  501    0 +4.1073471595e+01 -4.9686947426e+01 +1.4524370810e+01 6.6248548367e+01 4.7000000000e+00 0.0000e+00 -1.0000e+00
       -5  1    4    4    0  501 +8.2508548692e-01 -6.4636004384e+00 -1.1957484970e+00 8.1227280612e+00 4.7000000000e+00 0.0000e+00 -1.0000e+00
        5  1    4    4  502    0 -5.1803289065e+00 +1.9830374896e+01 -2.5817605610e+01 3.3297422356e+01 4.7000000000e+00 0.0000e+00 1.0000e+00
       -5  1    4    4    0  502 +4.0868685796e+00 +2.2268860360e+01 -1.4505254127e+01 2.7296465592e+01 4.7000000000e+00 0.0000e+00 1.0000e+00
</event>
<event>
10      1 +4.6527485e-10 2.40000000e+02 7.81860800e-03 1.03012300e-01
      -11 -1    0    0    0    0 +0.0000000000e+00 +0.0000000000e+00 +1.2000000000e+02 1.2000000000e+02 0.0000000000e+00 0.0000e+00 1.0000e+00
       11 -1    0    0    0    0 -0.0000000000e+00 -0.0000000000e+00 -1.2000000000e+02 1.2000000000e+02 0.0000000000e+00 0.0000e+00 -1.0000e+00
       23  2    1    2    0    0 +1.5618591605e+01 -1.3073535535e+01 +4.6745329420e+01 1.0499972312e+02 9.1787571587e+01 0.0000e+00 0.0000e+00
       25  2    1    2    0    0 -1.5618591605e+01 +1.3073535535e+01 -4.6745329420e+01 1.3500027688e+02 1.2500036480e+02 0.0000e+00 0.0000e+00
      -13  1    3    3    0    0 -7.5525149026e+00 +2.8583705648e+00 +6.8794046276e+01 6.9266381215e+01 0.0000000000e+00 0.0000e+00 1.0000e+00
       13  1    3    3    0    0 +2.3171106507e+01 -1.5931906100e+01 -2.2048716856e+01 3.5733341906e+01 0.0000000000e+00 0.0000e+00 -1.0000e+00
        5  1    4    4  501    0 -5.9120046499e+00 +8.9535999491e+00 +1.3179687708e+01 1.7632722963e+01 4.7000000000e+00 0.0000e+00 -1.0000e+00
       -5  1    4    4    0  501 -6.3353635559e+00 +4.2446151744e+01 +5.7782482025e-01 4.3176805241e+01 4.7000000000e+00 0.0000e+00 -1.0000e+00
        5  1    4    4  502    0 +4.9087647773e+00 -2.7094517067e+01 -3.5472539317e+01 4.5150856828e+01 4.7000000000e+00 0.0000e+00 -1.0000e+00
       -5  1    4    4    0  502 -8.2799881763e+00 -1.1231699092e+01 -2.5030302630e+01 2.9039891846e+01 4.7000000000e+00 0.0000e+00 -1.0000e+00
</event>
<event>
10      1 +4.6527485e-10 2.40000000e+02 7.81860800e-03 1.03012300e-01
      -11 -1    0    0    0    0 +0.0000000000e+00 +0.0000000000e+00 +1.2000000000e+02 1.2000000000e+02 0.0000000000e+00 0.0000e+00 -1.0000e+00
       11 -1    0    0    0    0 -0.0000000000e+00 -0.0000000000e+00 -1.2000000000e+02 1.2000000000e+02 0.0000000000e+00 0.0000e+00 1.0000e+00
       23  2    1    2    0    0 +4.0478614823e+01 +2.8082697900e+01 -2.9810869811e-01 1.0562915662e+02 9.3435933562e+01 0.0000e+00 0.0000e+00
       25  2    1    2    0    0 -4.0478614823e+01 -2.8082697900e+01 +2.9810869811e-01 1.3437084338e+02 1.2501311332e+02 0.0000e+00 0.0000e+00
      -13  1    3    3    0    0 -4.4199849136e+00 -7.0567231337e-02 +3.9253641895e+01 3.9501767661e+01 0.0000000000e+00 0.0000e+00 -1.0000e+00
       13  1    3    3    0    0 +4.4898599737e+01 +2.8153265132e+01 -3.9551750593e+01 6.6127388961e+01 0.0000000000e+00 0.0000e+00 1.0000e+00
        5  1    4    4  501    0 +1.2570294042e+00 +2.5752901040e+00 +2.0588534845e+00 5.8771693623e+00 4.7000000000e+00 0.0000e+00 1.0000e+00
       -5  1    4    4    0  501 -6.9233456405e+01 +3.9954152802e+00 +3.8432302968e+00 6.9613901257e+01 4.7000000000e+00 0.0000e+00 1.0000e+00
        5  1    4    4  502    0 +1.9192558717e+01 -1.4527892149e+01 +1.4823686607e+01 2.8657383778e+01 4.7000000000e+00 0.0000e+00 1.0000e+00
       -5  1    4    4    0  502 +8.3052534608e+00 -2.0125511135e+01 -2.0427661690e+01 3.0222388980e+01 4.7000000000e+00 0.0000e+00 1.0000e+00
</event>
<event>
10      1 +4.6527485e-10 2.40000000e+02 7.81860800e-03 1.03012300e-01
      -11 -1    0    0    0    0 +0.0000000000e+00 +0.0000000000e+00 +1.2000000000e+02 1.2000000000e+02 0.0000000000e+00 0.0000e+00 1.0000e+00
       11 -1    0    0    0    0 -0.0000000000e+00 -0.0000000000e+00 -1.2000000000e+02 1.2000000000e+02 0.0000000000e+00 0.0000e+00 -1.0000e+00
       23  2    1    2    0    0 +1.1875323404e+01 -3.9591210541e+01 -3.9583086565e+01 1.0251994010e+02 8.5058980232e+01 0.0000e+00 0.0000e+00
       25  2    1    2    0    0 -1.1875323404e+01 +3.9591210541e+01 +3.9583086565e+01 1.3748005990e+02 1.2500183547e+02 0.0000e+00 0.0000e+00
      -11  1    3    3    0    0 +8.0603725546e+00 -2.0867315109e+01 +2.5948113647e+01 3.4259583293e+01 0.0000000000e+00 0.0000e+00 1.0000e+00
       11  1    3    3    0    0 +3.8149508497e+00 -1.8723895432e+01 -6.5531200212e+01 6.8260356807e+01 0.0000000000e+00 0.0000e+00 -1.0000e+00
        5  1    4    4  501    0 -1.7246707209e+01 -2.1967657648e+00 +8.1637390633e+00 1.9774006293e+01 4.7000000000e+00 0.0000e+00 -1.0000e+00
       -5  1    4    4    0  501 -4.7551187215e+01 +2.3003980966e+01 +1.1661836100e+01 5.4299051254e+01 4.7000000000e+00 0.0000e+00 -1.0000e+00
        5  1    4    4  502    0 +2.5630756133e+01 +8.2743717048e+00 -7.9925759357e-01 2.7351959706e+01 4.7000000000e+00 0.0000e+00 -1.0000e+00
       -5  1    4    4    0  502 +2.7291814887e+01 +1.0509623635e+01 +2.0556768995e+01 3.6055042647e+01 4.7000000000e+00 0.0000e+00 -1.0000e+00
</event>
<event>
10      1 +4.6527485e-10 2.40000000e+02 7.81860800e-03 1.03012300e-01
      -11 -1    0    0    0    0 +0.0000000000e+00 +0.0000000000e+00 +1.2000000000e+02 1.2000000000e+02 0.0000000000e+00 0.0000e+00 -1.0000e+00
       11 -1    0    0    0    0 -0.0000000000e+00 -0.0000000000e+00 -1.2000000000e+02 1.2000000000e+02 0.0000000000e+00 0.0000e+00 1.0000e+00
       23  2    1    2    0    0 -1.0437886075e+01 +2.1308238751e+01 -4.6350822598e+01 1.0458698192e+02 9.0703073415e+01 0.0000e+00 0.0000e+00
       25  2    1    2    0    0 +1.0437886075e+01 -2.1308238751e+01 +4.6350822598e+01 1.3541301808e+02 1.2500118482e+02 0.0000e+00 0.0000e+00
      -11  1    3    3    0    0 -4.5778658846e+01 +2.1605305372e+00 -3.6969724136e+00 4.5978485218e+01 0.0000000000e+00 0.0000e+00 -1.0000e+00
       11  1    3    3    0    0 +3.5340772771e+01 +1.9147708214e+01 -4.2653850184e+01 5.8608496700e+01 0.0000000000e+00 0.0000e+00 1.0000e+00
        5  1    4    4  501    0 +1.4191995864e+01 -1.2714014713e+01 +3.3485022374e+01 3.8812312996e+01 4.7000000000e+00 0.0000e+00 1.0000e+00
       -5  1    4    4    0  501 -4.4216617599e+00 -2.6478318268e+01 +4.5368308677e+01 5.2924718830e+01 4.7000000000e+00 0.0000e+00 1.0000e+00
        5  1    4    4  502    0 -9.3305568528e+00 +3.4739645024e+00 -1.1796391518e+01 1.6136064371e+01 4.7000000000e+00 0.0000e+00 1.0000e+00
       -5  1    4    4    0  502 +9.9981088237e+00 +1.4410129728e+01 -2.0706116936e+01 2.7539921884e+01 4.7000000000e+00 0.0000e+00 1.0000e+00
</event>
<event>
10      1 +4.6527485e-10 2.40000000e+02 7.81860800e-03 1.03012300e-01
      -11 -1    0    0    0    0 +0.0000000000e+00 +0.0000000000e+00 +1.2000000000e+02 1.2000000000e+02 0.0000000000e+00 0.0000e+00 1.0000e+00
       11 -1    0    0    0    0 -0.0000000000e+00 -0.0000000000e+00 -1.2000000000e+02 1.2000000000e+02 0.0000000000e+00 0.0000e+00 -1.0000e+00
       23  2    1    2    0    0 -3.6213917959e+01 +3.5935015660e+01 -6.7858716177e+00 1.0481960531e+02 9.1314447927e+01 0.0000e+00 0.0000e+00
       25  2    1    2    0    0 +3.6213917959e+01 -3.5935015660e+01 +6.7858716177e+00 1.3518039469e+02 1.2499967140e+02 0.0000e+00 0.0000e+00
      -11  1    3    3    0    0 -3.2270027921e+01 +7.6476051879e+00 +3.8789780121e+01 5.1034180790e+01 0.0000000000e+00 0.0000e+00 1.0000e+00
       11  1    3    3    0    0 -3.9438900384e+00 +2.8287410472e+01 -4.5575651739e+01 5.3785424524e+01 0.0000000000e+00 0.0000e+00 -1.0000e+00
        5  1    4    4  501    0 +2.2905023231e+01 +5.2803053217e-01 +6.2617030032e+00 2.4211935692e+01 4.7000000000e+00 0.0000e+00 -1.0000e+00
       -5  1    4    4    0  501 +1.1009636233e+01 -1.1204094574e+01 +4.1070522710e+00 1.6902712906e+01 4.7000000000e+00 0.0000e+00 -1.0000e+00
        5  1    4    4  502    0 -2.7020932945e+00 -4.3997092914e+01 +3.1030968798e+01 5.4111519269e+01 4.7000000000e+00 0.0000e+00 1.0000e+00
       -5  1    4    4    0  502 +5.0013517893e+00 +1.8738141296e+01 -3.4613852454e+01 3.9954226819e+01 4.7000000000e+00 0.0000e+00 1.0000e+00
</event>
<event>
10      1 +4.6527485e-10 2.40000000e+02 7.81860800e-03 1.03012300e-01
      -11 -1    0    0    0    0 +0.0000000000e+00 +0.0000000000e+00 +1.2000000000e+02 1.2000000000e+02 0.0000000000e+00 0.0000e+00 1.0000e+00
       11 -1    0    0    0    0 -0.0000000000e+00 -0.0000000000e+00 -1.2000000000e+02 1.2000000000e+02 0.0000000000e+00 0.0000e+00 -1.0000e+00
       23  2    1    2    0    0 +4.8761698108e+01 -1.5026501740e+01 +7.6195644853e+00 1.0476905535e+02 9.1186612165e+01 0.0000e+00 0.0000e+00
       25  2    1    2    0    0 -4.8761698108e+01 +1.5026501740e+01 -7.6195644853e+00 1.3523094465e+02 1.2500340664e+02 0.0000e+00 0.0000e+00
      -11  1    3    3    0    0 -5.3288838888e+00 +1.6252967098e+01 +3.3125041988e+01 3.7280348037e+01 0.0000000000e+00 0.0000e+00 1.0000e+00
       11  1    3    3    0    0 +5.4090581997e+01 -3.1279468838e+01 -2.5505477503e+01 6.7488707309e+01 0.0000000000e+00 0.0000e+00 -1.0000e+00
        5  1    4    4  501    0 -3.4396633232e+01 +1.3239347989e+00 -6.2999082970e+00 3.5308073094e+01 4.7000000000e+00 0.0000e+00 -1.0000e+00
       -5  1    4    4    0  501 -4.9220814439e+01 +2.0644387216e+01 +4.6670344600e-01 5.3583459292e+01 4.7000000000e+00 0.0000e+00 -1.0000e+00
        5  1    4    4  502    0 +2.7522511002e+01 -1.4605459543e+01 -8.8842173313e+00 3.2738774839e+01 4.7000000000e+00 0.0000e+00 -1.0000e+00
       -5  1    4    4    0  502 +7.3332385610e+00 +7.6636392683e+00 +7.0978576970e+00 1.3600637430e+01 4.7000000000e+00 0.0000e+00 -1.0000e+00
</event>
<event>
10      1 +4.6527485e-10 2.40000000e+02 7.81860800e-03 1.03012300e-01
      -11 -1    0    0    0    0 +0.0000000000e+00 +0.0000000000e+00 +1.2000000000e+02 1.2000000000e+02 0.0000000000e+00 0.0000e+00 -1.0000e+00
       11 -1    0    0    0    0 -0.0000000000e+00 -0.0000000000e+00 -1.2000000000e+02 1.2000000000e+02 0.0000000000e+00 0.0000e+00 1.0000e+00
       23  2    1    2    0    0 +3.5736897933e+01 -3.2683422842e+01 -1.3803268467e+01 1.0523967143e+02 9.2409556969e+01 0.0000e+00 0.0000e+00
       25  2    1    2    0    0 -3.5736897933e+01 +3.2683422842e+01 +1.3803268467e+01 1.3476032857e+02 1.2499793572e+02 0.0000e+00 0.0000e+00
      -11  1    3    3    0    0 +6.6904546777e+01 -1.9303887896e+01 -3.2172718429e+00 6.9708028988e+01 0.0000000000e+00 0.0000e+00 1.0000e+00
       11  1    3    3    0    0 -3.1167648844e+01 -1.3379534946e+01 -1.0585996624e+01 3.5531642438e+01 0.0000000000e+00 0.0000e+00 -1.0000e+00
        5  1    4    4  501    0 +4.0926968564e+01 +1.9276952748e+00 -1.2613468803e+00 4.1260317023e+01 4.7000000000e+00 0.0000e+00 1.0000e+00
       -5  1    4    4    0  502 -5.0813620310e+01 +8.6520568570e+00 +1.5490586364e+01 5.4027126176e+01 4.7000000000e+00 0.0000e+00 -1.0000e+00
        5  1    4    4  502    0 -2.4955507551e+01 +1.1656046315e+01 +4.8551015742e-01 2.7945777730e+01 4.7000000000e+00 0.0000e+00 -1.0000e+00
       -5  1    4    4    0  501 -8.9473863591e-01 +1.0447624395e+01 -9.1148117389e-01 1.1527107645e+01 4.7000000000e+00 0.0000e+00 1.0000e+00
</event>
<event>
10      1 +4.6527485e-10 2.40000000e+02 7.81860800e-03 1.03012300e-01
      -11 -1    0    0    0    0 +0.0000000000e+00 +0.0000000000e+00 +1.2000000000e+02 1.2000000000e+02 0.0000000000e+00 0.0000e+00 1.0000e+00
       11 -1    0    0    0    0 -0.0000000000e+00 -0.0000000000e+00 -1.2000000000e+02 1.2000000000e+02 0.0000000000e+00 0.0000e+00 -1.0000e+00
       23  2    1    2    0    0 -3.7361097296e+01 -5.0431400639e+00 +3.7319825370e+01 1.0420871329e+02 8.9696163275e+01 0.0000e+00 0.0000e+00
       25  2    1    2    0    0 +3.7361097296e+01 +5.0431400639e+00 -3.7319825370e+01 1.3579128671e+02 1.2500087731e+02 0.0000e+00 0.0000e+00
      -13  1    3    3    0    0 -4.3205905577e+01 -2.3202807356e+01 +5.8079034518e+01 7.6015095846e+01 0.0000000000e+00 0.0000e+00 1.0000e+00
       13  1    3    3    0    0 +5.8448082810e+00 +1.8159667292e+01 -2.0759209147e+01 2.8193617441e+01 0.0000000000e+00 0.0000e+00 -1.0000e+00
        5  1    4    4  501    0 +2.7803603716e+00 +6.7487953781e-01 -6.1139680257e+00 8.2253553847e+00 4.7000000000e+00 0.0000e+00 1.0000e+00
       -5  1    4    4    0  501 +6.3182480239e+01 +1.5571456544e+01 -5.1701534600e+01 8.3244427730e+01 4.7000000000e+00 0.0000e+00 -1.0000e+00
        5  1    4    4  502    0 -5.9483945026e-01 -9.1049053731e+00 +2.2678323196e+00 1.0511241566e+01 4.7000000000e+00 0.0000e+00 1.0000e+00
       -5  1    4    4    0  502 -2.8006903864e+01 -2.0982906448e+00 +1.8227844936e+01 3.3810262032e+01 4.7000000000e+00 0.0000e+00 1.0000e+00
</event>
<event>
10      1 +4.6527485e-10 2.40000000e+02 7.81860800e-03 1.03012300e-01
      -11 -1    0    0    0    0 +0.0000000000e+00 +0.0000000000e+00 +1.2000000000e+02 1.2000000000e+02 0.0000000000e+00 0.0000e+00 1.0000e+00
       11 -1    0    0    0    0 -0.0000000000e+00 -0.0000000000e+00 -1.2000000000e+02 1.2000000000e+02 0.0000000000e+00 0.0000e+00 -1.0000e+00
       23  2    1    2    0    0 +4.4132789776e+01 +2.4373804408e+01 +6.8116822822e+00 1.0504524492e+02 9.1903857321e+01 0.0000e+00 0.0000e+00
       25  2    1    2    0    0 -4.4132789776e+01 -2.4373804408e+01 -6.8116822822e+00 1.3495475508e+02 1.2499840570e+02 0.0000e+00 0.0000e+00
      -13  1    3    3    0    0 +5.9387895686e+01 -7.7462546978e+00 +2.5243357286e+01 6.4993489696e+01 0.0000000000e+00 0.0000e+00 1.0000e+00
       13  1    3    3    0    0 -1.5255105909e+01 +3.2120059105e+01 -1.8431675004e+01 4.0051755226e+01 0.0000000000e+00 0.0000e+00 -1.0000e+00
        5  1    4    4  501    0 -4.8618565493e+00 -1.7673261040e+01 -3.6100292351e+00 1.9264062810e+01 4.7000000000e+00 0.0000e+00 1.0000e+00
       -5  1    4    4    0  501 -4.3123748728e+01 -4.3082409884e+01 -2.7197702278e+01 6.6914548157e+01 4.7000000000e+00 0.0000e+00 1.0000e+00
        5  1    4    4  502    0 +3.4604630128e+00 +1.0768977944e+00 +1.9695535197e-01 5.9382913816e+00 4.7000000000e+00 0.0000e+00 -1.0000e+00
       -5  1    4    4    0  502 +3.9235248824e-01 +3.5304968722e+01 +2.3799093879e+01 4.2837852729e+01 4.7000000000e+00 0.0000e+00 -1.0000e+00
</event>
<event>
10      1 +4.6527485e-10 2.40000000e+02 7.81860800e-03 1.03012300e-01
      -11 -1    0    0    0    0 +0.0000000000e+00 +0.0000000000e+00 +1.2000000000e+02 1.2000000000e+02 0.0000000000e+00 0.0000e+00 1.0000e+00
       11 -1    0    0    0    0 -0.0000000000e+00 -0.0000000000e+00 -1.2000000000e+02 1.2000000000e+02 0.0000000000e+00 0.0000e+00 -1.0000e+00
       23  2    1    2    0    0 -5.0555824478e+01 +1.5179306764e+01 +3.8978692158e+00 1.0425593047e+02 8.9820949173e+01 0.0000e+00 0.0000e+00
       25  2    1    2    0    0 +5.0555824478e+01 -1.5179306764e+01 -3.8978692158e+00 1.3574406953e+02 1.2499982515e+02 0.0000e+00 0.0000e+00
      -11  1    3    3    0    0 -6.9032636108e+01 -1.3072256824e+01 -1.2830317471e-01 7.0259555992e+01 0.0000000000e+00 0.0000e+00 -1.0000e+00
       11  1    3    3    0    0 +1.8476811630e+01 +2.8251563588e+01 +4.0261723905e+00 3.3996374473e+01 0.0000000000e+00 0.0000e+00 1.0000e+00
        5  1    4    4  501    0 +3.4542439305e+00 -3.2657475823e+01 +3.1516487604e+01 4.5758294539e+01 4.7000000000e+00 0.0000e+00 -1.0000e+00
       -5  1    4    4    0  501 +1.4300717430e+01 -1.1631781477e+01 +1.2480971976e+01 2.2752439887e+01 4.7000000000e+00 0.0000e+00 -1.0000e+00
        5  1    4    4  502    0 +3.1531510276e+01 +2.6865029144e+01 -4.3944815829e+01 6.0573944642e+01 4.7000000000e+00 0.0000e+00 1.0000e+00
       -5  1    4    4    0  502 +1.2693528417e+00 +2.2449213918e+00 -3.9505129659e+00 6.6593904665e+00 4.7000000000e+00 0.0000e+00 1.0000e+00
</event>
<event>
10      1 +4.6527485e-10 2.40000000e+02 7.81860800e-03 1.03012300e-01
      -11 -1    0    0    0    0 +0.0000000000e+00 +0.0000000000e+00 +1.2000000000e+02 1.2000000000e+02 0.0000000000e+00 0.0000e+00 -1.0000e+00
       11 -1    0    0    0    0 -0.0000000000e+00 -0.0000000000e+00 -1.2000000000e+02 1.2000000000e+02 0.0000000000e+00 0.0000e+00 1.0000e+00
       23  2    1    2    0    0 +2.6386502396e+01 -2.7812040162e+01 -4.3291738476e+01 1.0227083169e+02 8.4352778898e+01 0.0000e+00 0.0000e+00
       25  2    1    2    0    0 -2.6386502396e+01 +2.7812040162e+01 +4.3291738476e+01 1.3772916831e+02 1.2500156837e+02 0.0000e+00 0.0000e+00
      -13  1    3    3    0    0 +1.8961881261e+01 -2.8752371737e+01 -6.8123826002e+01 7.6335492994e+01 0.0000000000e+00 0.0000e+00 1.0000e+00
       13  1    3    3    0    0 +7.4246211347e+00 +9.4033157462e-01 +2.4832087526e+01 2.5935338697e+01 0.0000000000e+00 0.0000e+00 -1.0000e+00
        5  1    4    4  501    0 -1.8348840911e+01 -2.6766097984e+01 +3.8040301693e+00 3.3010068307e+01 4.7000000000e+00 0.0000e+00 1.0000e+00
       -5  1    4    4    0  501 -2.1873990021e+01 +9.7538676486e+00 -1.6091529849e+01 2.9234170185e+01 4.7000000000e+00 0.0000e+00 1.0000e+00
        5  1    4    4  502    0 +6.2113406754e+00 +9.5187806361e+00 +5.2860371786e+00 1.3387312159e+01 4.7000000000e+00 0.0000e+00 -1.0000e+00
       -5  1    4    4    0  502 +7.6249878608e+00 +3.5305489862e+01 +5.0293200977e+01 6.2097617658e+01 4.7000000000e+00 0.0000e+00 -1.0000e+00
</event>
<event>
10      1 +4.6527485e-10 2.40000000e+02 7.81860800e-03 1.03012300e-01
      -11 -1    0    0    0    0 +0.0000000000e+00 +0.0000000000e+00 +1.2000000000e+02 1.2000000000e+02 0.0000000000e+00 0.0000e+00 1.0000e+00
       11 -1    0    0    0    0 -0.0000000000e+00 -0.0000000000e+00 -1.2000000000e+02 1.2000000000e+02 0.0000000000e+00 0.0000e+00 -1.0000e+00
       23  2    1    2    0    0 +4.8742792197e+01 +2.8230543503e+00 +2.4956299145e+01 1.0350138019e+02 8.7783195466e+01 0.0000e+00 0.0000e+00
       25  2    1    2    0    0 -4.8742792197e+01 -2.8230543503e+00 -2.4956299145e+01 1.3649861981e+02 1.2500090767e+02 0.0000e+00 0.0000e+00
      -11  1    3    3    0    0 -4.4495774280e+00 -1.5436779776e+01 -2.4039111933e+01 2.8913177128e+01 0.0000000000e+00 0.0000e+00 -1.0000e+00
       11  1    3    3    0    0 +5.3192369625e+01 +1.8259834126e+01 +4.8995411078e+01 7.4588203057e+01 0.0000000000e+00 0.0000e+00 1.0000e+00
        5  1    4    4  501    0 -2.2990485379e+01 +1.5634063044e+01 -1.0652435849e+00 2.8217212639e+01 4.7000000000e+00 0.0000e+00 1.0000e+00
       -5  1    4    4    0  501 -2.9157954744e+01 +2.1303897740e+01 +2.3489257516e+01 4.3334485141e+01 4.7000000000e+00 0.0000e+00 1.0000e+00
        5  1    4    4  502    0 +6.4192995613e+00 -7.0345494061e+00 -1.6398330715e+01 1.9536825291e+01 4.7000000000e+00 0.0000e+00 1.0000e+00
       -5  1    4    4    0  502 -3.0136516348e+00 -3.2726465728e+01 -3.0981982361e+01 4.5410096744e+01 4.7000000000e+00 0.0000e+00 1.0000e+00
</event>
<event>
10      1 +4.6527485e-10 2.40000000e+02 7.81860800e-03 1.03012300e-01
      -11 -1    0    0    0    0 +0.0000000000e+00 +0.0000000000e+00 +1.2000000000e+02 1.2000000000e+02 0.0000000000e+00 0.0000e+00 1.0000e+00
       11 -1    0    0    0    0 -0.0000000000e+00 -0.0000000000e+00 -1.2000000000e+02 1.2000000000e+02 0.0000000000e+00 0.0000e+00 -1.0000e+00
       23  2    1    2    0    0 -2.7724956230e+01 -2.8611974025e+01 +3.3707795548e+01 1.0454271383e+02 9.0585016861e+01 0.0000e+00 0.0000e+00
       25  2    1    2    0    0 +2.7724956230e+01 +2.8611974025e+01 -3.3707795548e+01 1.3545728617e+02 1.2500057055e+02 0.0000e+00 0.0000e+00
      -13  1    3    3    0    0 +7.1926092955e+00 +2.7104402088e+01 -4.6398639532e+00 2.8423767845e+01 0.0000000000e+00 0.0000e+00 -1.0000e+00
       13  1    3    3    0    0 -3.4917565525e+01 -5.5716376113e+01 +3.8347659502e+01 7.6118945990e+01 0.0000000000e+00 0.0000e+00 1.0000e+00
        5  1    4    4  501    0 +2.4472088348e+01 +1.8201402069e+01 -4.0772314617e+01 5.1133607193e+01 4.7000000000e+00 0.0000e+00 -1.0000e+00
       -5  1    4    4    0  501 +1.9480495881e+01 -7.3668944148e+00 -2.7580252280e+01 3.4878663519e+01 4.7000000000e+00 0.0000e+00 -1.0000e+00
        5  1    4    4  502    0 +1.9381807759e+00 +1.5377315321e+01 +1.3608692550e+01 2.1154311242e+01 4.7000000000e+00 0.0000e+00 -1.0000e+00
       -5  1    4    4    0  502 -1.8165808775e+01 +2.4001510498e+00 +2.1036078799e+01 2.8290704211e+01 4.7000000000e+00 0.0000e+00 -1.0000e+00
</event>
<event>
10      1 +4.6527485e-10 2.40000000e+02 7.81860800e-03 1.03012300e-01
      -11 -1    0    0    0    0 +0.0000000000e+00 +0.0000000000e+00 +1.2000000000e+02 1.2000000000e+02 0.0000000000e+00 0.0000e+00 1.0000e+00
       11 -1    0    0    0    0 -0.0000000000e+00 -0.0000000000e+00 -1.2000000000e+02 1.2000000000e+02 0.0000000000e+00 0.0000e+00 -1.0000e+00
       23  2    1    2    0    0 +2.7677061401e+01 +6.1207652247e+00 -5.0259502269e+01 1.0232918352e+02 8.4508938799e+01 0.0000e+00 0.0000e+00
       25  2    1    2    0    0 -2.7677061401e+01 -6.1207652247e+00 +5.0259502269e+01 1.3767081648e+02 1.2499501049e+02 0.0000e+00 0.0000e+00
      -11  1    3    3    0    0 +2.7288729305e+01 +3.6644024569e+01 -5.4930642037e+01 7.1448126066e+01 0.0000000000e+00 0.0000e+00 -1.0000e+00
       11  1    3    3    0    0 +3.8833209550e-01 -3.0523259344e+01 +4.6711397683e+00 3.0881057455e+01 0.0000000000e+00 0.0000e+00 1.0000e+00
        5  1    4    4  501    0 +6.1045787296e+00 -5.8021565088e+00 -2.3190462041e+01 2.5116099046e+01 4.7000000000e+00 0.0000e+00 1.0000e+00
       -5  1    4    4    0  501 +1.1739311402e+01 +8.5080091448e+00 -5.0951888785e+00 1.6070115168e+01 4.7000000000e+00 0.0000e+00 1.0000e+00
        5  1    4    4  502    0 -1.6381871893e+01 -1.1364606696e+00 +6.5472497161e+00 1.8292450585e+01 4.7000000000e+00 0.0000e+00 1.0000e+00
       -5  1    4    4    0  502 -2.9139079640e+01 -7.6901571912e+00 +7.1997903472e+01 7.8192151680e+01 4.7000000000e+00 0.0000e+00 1.0000e+00
</event>
<event>
10      1 +4.6527485e-10 2.40000000e+02 7.81860800e-03 1.03012300e-01
      -11 -1    0    0    0    0 +0.0000000000e+00 +0.0000000000e+00 +1.2000000000e+02 1.2000000000e+02 0.0000000000e+00 0.0000e+00 -1.0000e+00
       11 -1    0    0    0    0 -0.0000000000e+00 -0.0000000000e+00 -1.2000000000e+02 1.2000000000e+02 0.0000000000e+00 0.0000e+00 1.0000e+00
       23  2    1    2    0    0 -1.0644759299e+01 -2.3041809261e+01 +4.1487205994e+01 1.0588693452e+02 9.4056465840e+01 0.0000e+00 0.0000e+00
       25  2    1    2    0    0 +1.0644759299e+01 +2.3041809261e+01 -4.1487205994e+01 1.3411306548e+02 1.2498355971e+02 0.0000e+00 0.0000e+00
      -13  1    3    3    0    0 -4.3858339845e+01 -1.1071181939e+01 +5.2123719088e+01 6.9014542924e+01 0.0000000000e+00 0.0000e+00 -1.0000e+00
       13  1    3    3    0    0 +3.3213580546e+01 -1.1970627322e+01 -1.0636513094e+01 3.6872391596e+01 0.0000000000e+00 0.0000e+00 1.0000e+00
        5  1    4    4  501    0 -2.6087297446e+01 +3.4623608154e+01 -1.8611678393e+01 4.7411242361e+01 4.7000000000e+00 0.0000e+00 -1.0000e+00
       -5  1    4    4    0  501 -6.0381155594e-01 +2.1795910994e+01 -2.1457486775e+01 3.0950606831e+01 4.7000000000e+00 0.0000e+00 -1.0000e+00
        5  1    4    4  502    0 -1.7318460053e+00 -4.7640527579e+00 -1.6103762826e+00 7.0978025499e+00 4.7000000000e+00 0.0000e+00 1.0000e+00
       -5  1    4    4    0  502 +3.9067714306e+01 -2.8613657130e+01 +1.9233545720e-01 4.8653413738e+01 4.7000000000e+00 0.0000e+00 1.0000e+00
</event>
<event>
10      1 +4.6527485e-10 2.40000000e+02 7.81860800e-03 1.03012300e-01
      -11 -1    0    0    0    0 +0.0000000000e+00 +0.0000000000e+00 +1.2000000000e+02 1.2000000000e+02 0.0000000000e+00 0.0000e+00 1.0000e+00
       11 -1    0    0    0    0 -0.0000000000e+00 -0.0000000000e+00 -1.2000000000e+02 1.2000000000e+02 0.0000000000e+00 0.0000e+00 -1.0000e+00
       23  2    1    2    0    0 -4.3497148349e-01 +2.2433781390e+00 +5.0625301807e+01 1.0511743114e+02 9.2095228979e+01 0.0000e+00 0.0000e+00
       25  2    1    2    0    0 +4.3497148349e-01 -2.2433781390e+00 -5.0625301807e+01 1.3488256886e+02 1.2500065701e+02 0.0000e+00 0.0000e+00
      -11  1    3    3    0    0 +3.3529431749e+00 -4.2035206716e+01 +4.2631851820e+01 5.9963952681e+01 0.0000000000e+00 0.0000e+00 -1.0000e+00
       11  1    3    3    0    0 -3.7879146584e+00 +4.4278584855e+01 +7.9934499873e+00 4.5153478459e+01 0.0000000000e+00 0.0000e+00 1.0000e+00
        5  1    4    4  501    0 -4.6270682981e+00 -3.8959992180e+00 -4.7682273467e+00 9.0230018825e+00 4.7000000000e+00 0.0000e+00 1.0000e+00
       -5  1    4    4    0  501 -7.3429579201e+00 -8.2360981264e+00 -8.0801756853e+01 8.1687001744e+01 4.7000000000e+00 0.0000e+00 1.0000e+00
        5  1    4    4  502    0 +5.9324149323e+00 +1.3083429791e+01 +1.0909827980e+01 1.8640923491e+01 4.7000000000e+00 0.0000e+00 1.0000e+00
       -5  1    4    4    0  502 +6.4725827695e+00 -3.1947105858e+00 +2.4034854413e+01 2.5531641743e+01 4.7000000000e+00 0.0000e+00 1.0000e+00
</event>
<event>
10      1 +4.6527485e-10 2.40000000e+02 7.81860800e-03 1.03012300e-01
      -11 -1    0    0    0    0 +0.0000000000e+00 +0.0000000000e+00 +1.2000000000e+02 1.2000000000e+02 0.0000000000e+00 0.0000e+00 -1.0000e+00
       11 -1    0    0    0    0 -0.0000000000e+00 -0.0000000000e+00 -1.2000000000e+02 1.2000000000e+02 0.0000000000e+00 0.0000e+00 1.0000e+00
       23  2    1    2    0    0 -9.9528331799e+00 +4.7376516384e+01 -1.4233131991e+01 1.0519236260e+02 9.2299826164e+01 0.0000e+00 0.0000e+00
       25  2    1    2    0    0 +9.9528331799e+00 -4.7376516384e+01 +1.4233131991e+01 1.3480763740e+02 1.2500769521e+02 0.0000e+00 0.0000e+00
      -11  1    3    3    0    0 +2.0412854713e+01 +1.0518218658e+01 -4.3494966119e+01 4.9184648407e+01 0.0000000000e+00 0.0000e+00 1.0000e+00
       11  1    3    3    0    0 -3.0365687893e+01 +3.6858297726e+01 +2.9261834128e+01 5.6007714192e+01 0.0000000000e+00 0.0000e+00 -1.0000e+00
        5  1    4    4  501    0 -1.6494203947e+00 -5.6027820636e+00 +9.8636411338e+00 1.2389236091e+01 4.7000000000e+00 0.0000e+00 -1.0000e+00
       -5  1    4    4    0  501 +7.9828072436e-01 -3.7802546129e+00 +5.5333373043e+01 5.5666864015e+01 4.7000000000e+00 0.0000e+00 -1.0000e+00
        5  1    4    4  502    0 +6.7457274425e+00 -2.6304572066e+01 -2.3318365848e+01 3.6100852291e+01 4.7000000000e+00 0.0000e+00 1.0000e+00
       -5  1    4    4    0  502 +4.0582454077e+00 -1.1688907642e+01 -2.7645516337e+01 3.0650685004e+01 4.7000000000e+00 0.0000e+00 1.0000e+00
</event>
<event>
10      1 +4.6527485e-10 2.40000000e+02 7.81860800e-03 1.03012300e-01
      -11 -1    0    0    0    0 +0.0000000000e+00 +0.0000000000e+00 +1.2000000000e+02 1.2000000000e+02 0.0000000000e+00 0.0000e+00 1.0000e+00
       11 -1    0    0    0    0 -0.0000000000e+00 -0.0000000000e+00 -1.2000000000e+02 1.2000000000e+02 0.0000000000e+00 0.0000e+00 -1.0000e+00
       23  2    1    2    0    0 -4.4179190085e+01 +8.5927720149e+00 +3.1732364885e+01 1.0340623965e+02 8.7522973273e+01 0.0000e+00 0.0000e+00
       25  2    1    2    0    0 +4.4179190085e+01 -8.5927720149e+00 -3.1732364885e+01 1.3659376035e+02 1.2500110326e+02 0.0000e+00 0.0000e+00
      -11  1    3    3    0    0 -1.2055006528e+00 +2.7391167270e+01 +4.6714522702e+01 5.4166187862e+01 0.0000000000e+00 0.0000e+00 1.0000e+00
       11  1    3    3    0    0 -4.2973689432e+01 -1.8798395255e+01 -1.4982157817e+01 4.9240051791e+01 0.0000000000e+00 0.0000e+00 -1.0000e+00
        5  1    4    4  501    0 +3.5671407353e+01 -2.4181418131e+01 +1.3494941585e+01 4.5402574087e+01 4.7000000000e+00 0.0000e+00 1.0000e+00
       -5  1    4    4    0  502 -2.2575523063e+00 +2.0339868349e+01 -1.8206376706e+00 2.1076325780e+01 4.7000000000e+00 0.0000e+00 1.0000e+00
        5  1    4    4  502    0 -2.5992333020e+00 +1.9836916407e+01 -3.4879961057e+01 4.0484082670e+01 4.7000000000e+00 0.0000e+00 1.0000e+00
       -5  1    4    4    0  501 +1.3364568340e+01 -2.4588138640e+01 -8.5267077415e+00 2.9630777809e+01 4.7000000000e+00 0.0000e+00 1.0000e+00
</event>
<event>
10      1 +4.6527485e-10 2.40000000e+02 7.81860800e-03 1.03012300e-01
      -11 -1    0    0    0    0 +0.0000000000e+00 +0.0000000000e+00 +1.2000000000e+02 1.2000000000e+02 0.0000000000e+00 0.0000e+00 1.0000e+00
       11 -1    0    0    0    0 -0.0000000000e+00 -0.0000000000e+00 -1.2000000000e+02 1.2000000000e+02 0.0000000000e+00 0.0000e+00 -1.0000e+00
       23  2    1    2    0    0 -4.3313498527e+01 +2.7406416806e+01 +1.0038835851e+01 1.0452496547e+02 9.0540153216e+01 0.0000e+00 0.0000e+00
       25  2    1    2    0    0 +4.3313498527e+01 -2.7406416806e+01 -1.0038835851e+01 1.3547503453e+02 1.2500214366e+02 0.0000e+00 0.0000e+00
      -13  1    3    3    0    0 +2.2047798423e+01 +3.1110617613e+01 +8.3628949459e+00 3.9037340527e+01 0.0000000000e+00 0.0000e+00 1.0000e+00
       13  1    3    3    0    0 -6.5361296950e+01 -3.7042008065e+00 +1.6759409047e+00 6.5487624942e+01 0.0000000000e+00 0.0000e+00 -1.0000e+00
        5  1    4    4  501    0 +9.2468568081e+00 -6.6936156555e+00 +1.0184513073e+01 1.6003848222e+01 4.7000000000e+00 0.0000e+00 1.0000e+00
       -5  1    4    4    0  501 -2.1379058792e+00 -3.9747428241e+01 +3.1307657095e+01 5.0859493569e+01 4.7000000000e+00 0.0000e+00 1.0000e+00
        5  1    4    4  502    0 +1.9083219574e+01 +5.7326114845e-01 -2.1252987017e+01 2.8953019787e+01 4.7000000000e+00 0.0000e+00 1.0000e+00
       -5  1    4    4    0  502 +1.7121328024e+01 +1.8461365941e+01 -3.0278019002e+01 3.9658672953e+01 4.7000000000e+00 0.0000e+00 1.0000e+00
</event>
<event>
10      1 +4.6527485e-10 2.40000000e+02 7.81860800e-03 1.03012300e-01
      -11 -1    0    0    0    0 +0.0000000000e+00 +0.0000000000e+00 +1.2000000000e+02 1.2000000000e+02 0.0000000000e+00 0.0000e+00 -1.0000e+00
       11 -1    0    0    0    0 -0.0000000000e+00 -0.0000000000e+00 -1.2000000000e+02 1.2000000000e+02 0.0000000000e+00 0.0000e+00 1.0000e+00
       23  2    1    2    0    0 +4.6075471317e+01 -7.4838245697e+00 -1.8672229544e+01 1.0526538324e+02 9.2483469143e+01 0.0000e+00 0.0000e+00
       25  2    1    2    0    0 -4.6075471317e+01 +7.4838245697e+00 +1.8672229544e+01 1.3473461676e+02 1.2500323240e+02 0.0000e+00 0.0000e+00
      -11  1    3    3    0    0 +2.9545789767e+00 -4.3945796673e+01 +4.3987202621e+00 4.4264108735e+01 0.0000000000e+00 0.0000e+00 -1.0000e+00
       11  1    3    3    0    0 +4.3120892340e+01 +3.6461972104e+01 -2.3070949806e+01 6.1001274502e+01 0.0000000000e+00 0.0000e+00 1.0000e+00
        5  1    4    4  501    0 -2.1820696125e+01 -1.9790423731e+01 -6.0877501383e+00 3.0445925057e+01 4.7000000000e+00 0.0000e+00 1.0000e+00
       -5  1    4    4    0  501 -2.5602111466e+01 -3.0016504260e+01 +1.6865408907e+01 4.3162375480e+01 4.7000000000e+00 0.0000e+00 1.0000e+00
        5  1    4    4  502    0 +2.0394323355e+00 +3.5737033194e+01 -3.5284022466e+00 3.6274432431e+01 4.7000000000e+00 0.0000e+00 1.0000e+00
       -5  1    4    4    0  502 -6.9209606137e-01 +2.1553719366e+01 +1.1422973022e+01 2.4851883795e+01 4.7000000000e+00 0.0000e+00 1.0000e+00
</event>
<event>
10      1 +4.6527485e-10 2.40000000e+02 7.81860800e-03 1.03012300e-01
      -11 -1    0    0    0    0 +0.0000000000e+00 +0.0000000000e+00 +1.2000000000e+02 1.2000000000e+02 0.0000000000e+00 0.0000e+00 -1.0000e+00
       11 -1    0    0    0    0 -0.0000000000e+00 -0.0000000000e+00 -1.2000000000e+02 1.2000000000e+02 0.0000000000e+00 0.0000e+00 1.0000e+00
       23  2    1    2    0    0 -3.7772235101e+01 -2.5448283923e+01 -8.4122569198e+00 1.0669693138e+02 9.6120300666e+01 0.0000e+00 0.0000e+00
       25  2    1    2    0    0 +3.7772235101e+01 +2.5448283923e+01 +8.4122569198e+00 1.3330306862e+02 1.2499834054e+02 0.0000e+00 0.0000e+00
      -11  1    3    3    0    0 -3.8244673715e+01 -4.7935883195e+01 +2.5162219230e+01 6.6284547534e+01 0.0000000000e+00 0.0000e+00 -1.0000e+00
       11  1    3    3    0    0 +4.7243861408e-01 +2.2487599272e+01 -3.3574476150e+01 4.0412383845e+01 0.0000000000e+00 0.0000e+00 1.0000e+00
        5  1    4    4  501    0 +4.1288011967e+01 -3.3851008753e+01 +2.1831433386e+01 5.7873069812e+01 4.7000000000e+00 0.0000e+00 1.0000e+00
       -5  1    4    4    0  501 +5.9487803735e+00 +2.2523085266e+00 +4.0066836159e+00 8.8659119795e+00 4.7000000000e+00 0.0000e+00 1.0000e+00
        5  1    4    4  502    0 -4.5215849084e+00 +4.8570921425e+01 -3.8374232940e+00 4.9156840376e+01 4.7000000000e+00 0.0000e+00 -1.0000e+00
       -5  1    4    4    0  502 -4.9429723315e+00 +8.4760627240e+00 -1.3588436788e+01 1.7407246454e+01 4.7000000000e+00 0.0000e+00 -1.0000e+00
</event>
<event>
10      1 +4.6527485e-10 2.40000000e+02 7.81860800e-03 1.03012300e-01
      -11 -1    0    0    0    0 +0.0000000000e+00 +0.0000000000e+00 +1.2000000000e+02 1.2000000000e+02 0.0000000000e+00 0.0000e+00 1.0000e+00
       11 -1    0    0    0    0 -0.0000000000e+00 -0.0000000000e+00 -1.2000000000e+02 1.2000000000e+02 0.0000000000e+00 0.0000e+00 -1.0000e+00
       23  2    1    2    0    0 +5.0698135436e+01 +1.2323510313e+01 -1.1500672726e+01 1.0406209495e+02 8.9299968021e+01 0.0000e+00 0.0000e+00
       25  2    1    2    0    0 -5.0698135436e+01 -1.2323510313e+01 +1.1500672726e+01 1.3593790505e+02 1.2499871485e+02 0.0000e+00 0.0000e+00
      -11  1    3    3    0    0 +2.6832337067e+01 -5.7526045535e+00 +3.7602806189e+01 4.6551453306e+01 0.0000000000e+00 0.0000e+00 1.0000e+00
       11  1    3    3    0    0 +2.3865798370e+01 +1.8076114867e+01 -4.9103478915e+01 5.7510641642e+01 0.0000000000e+00 0.0000e+00 -1.0000e+00
        5  1    4    4  501    0 +2.0667358289e+01 +1.6811817025e+01 +2.2652068425e+01 3.5284317965e+01 4.7000000000e+00 0.0000e+00 -1.0000e+00
       -5  1    4    4    0  502 -3.2459685927e+01 -2.5530225010e+00 -2.9247947245e+00 3.3027163950e+01 4.7000000000e+00 0.0000e+00 -1.0000e+00
        5  1    4    4  502    0 -3.1863894592e+01 -3.4517119071e+01 -1.9839750921e+01 5.1209813554e+01 4.7000000000e+00 0.0000e+00 -1.0000e+00
       -5  1    4    4    0  501 -7.0419132063e+00 +7.9348142339e+00 +1.1613149947e+01 1.6416609584e+01 4.7000000000e+00 0.0000e+00 -1.0000e+00
</event>
<event>
10      1 +4.6527485e-10 2.40000000e+02 7.81860800e-03 1.03012300e-01
      -11 -1    0    0    0    0 +0.0000000000e+00 +0.0000000000e+00 +1.2000000000e+02 1.2000000000e+02 0.0000000000e+00 0.0000e+00 -1.0000e+00
       11 -1    0    0    0    0 -0.0000000000e+00 -0.0000000000e+00 -1.2000000000e+02 1.2000000000e+02 0.0000000000e+00 0.0000e+00 1.0000e+00
       23  2    1    2    0    0 -5.2138125465e-01 +2.6960542314e+01 +4.3854125216e+01 1.0481393349e+02 9.1299691542e+01 0.0000e+00 0.0000e+00
       25  2    1    2    0    0 +5.2138125465e-01 -2.6960542314e+01 -4.3854125216e+01 1.3518606651e+02 1.2499978239e+02 0.0000e+00 0.0000e+00
      -11  1    3    3    0    0 +9.7648871589e+00 +3.2584626110e+01 -2.0289513875e+01 3.9607767587e+01 0.0000000000e+00 0.0000e+00 1.0000e+00
       11  1    3    3    0    0 -1.0286268414e+01 -5.6240837960e+00 +6.4143639091e+01 6.5206165906e+01 0.0000000000e+00 0.0000e+00 -1.0000e+00
        5  1    4    4  501    0 +1.3620174883e+01 -5.5447849099e+00 -5.7296547057e+00 1.6467323601e+01 4.7000000000e+00 0.0000e+00 1.0000e+00
       -5  1    4    4    0  502 -2.8237924108e+01 -5.4101101713e+00 -4.4766181822e+01 5.3411147572e+01 4.7000000000e+00 0.0000e+00 1.0000e+00
        5  1    4    4  502    0 -2.1087873431e+01 +2.0991649677e-01 -7.5612498263e+00 2.2891154835e+01 4.7000000000e+00 0.0000e+00 1.0000e+00
       -5  1    4    4    0  501 +3.6227003910e+01 -1.6215563730e+01 +1.4202961139e+01 4.2416440498e+01 4.7000000000e+00 0.0000e+00 1.0000e+00
</event>
<event>
10      1 +4.6527485e-10 2.40000000e+02 7.81860800e-03 1.03012300e-01
      -11 -1    0    0    0    0 +0.0000000000e+00 +0.0000000000e+00 +1.2000000000e+02 1.2000000000e+02 0.0000000000e+00 0.0000e+00 -1.0000e+00
       11 -1    0    0    0    0 -0.0000000000e+00 -0.0000000000e+00 -1.2000000000e+02 1.2000000000e+02 0.0000000000e+00 0.0000e+00 1.0000e+00
       23  2    1    2    0    0 -1.7266966502e+01 +4.6371131996e+01 +3.6245529702e+01 1.0077303181e+02 7.9956460043e+01 0.0000e+00 0.0000e+00
       25  2    1    2    0    0 +1.7266966502e+01 -4.6371131996e+01 -3.6245529702e+01 1.3922696819e+02 1.2498792035e+02 0.0000e+00 0.0000e+00
      -11  1    3    3    0    0 +2.5348613181e+01 +1.1518152289e+01 -9.2657713516e+00 2.9344071652e+01 0.0000000000e+00 0.0000e+00 1.0000e+00
       11  1    3    3    0    0 -4.2615579683e+01 +3.4852979707e+01 +4.5511301054e+01 7.1428960162e+01 0.0000000000e+00 0.0000e+00 -1.0000e+00
        5  1    4    4  501    0 +3.2391055852e+01 +2.7086338153e+01 -2.1272983914e+01 4.7512946218e+01 4.7000000000e+00 0.0000e+00 1.0000e+00
       -5  1    4    4    0  502 -2.1763865951e+01 -5.6454228699e+01 +3.0790600732e-01 6.0687153544e+01 4.7000000000e+00 0.0000e+00 -1.0000e+00
        5  1    4    4  502    0 +2.3744899189e-01 -1.6311352880e+01 -4.3987837164e+00 1.7537272108e+01 4.7000000000e+00 0.0000e+00 -1.0000e+00
       -5  1    4    4    0  501 +6.4023276097e+00 -6.9188857110e-01 -1.0881668079e+01 1.3489596317e+01 4.7000000000e+00 0.0000e+00 1.0000e+00
</event>
<event>
10      1 +4.6527485e-10 2.40000000e+02 7.81860800e-03 1.03012300e-01
      -11 -1    0    0    0    0 +0.0000000000e+00 +0.0000000000e+00 +1.2000000000e+02 1.2000000000e+02 0.0000000000e+00 0.0000e+00 1.0000e+00
       11 -1    0    0    0    0 -0.0000000000e+00 -0.0000000000e+00 -1.2000000000e+02 1.2000000000e+02 0.0000000000e+00 0.0000e+00 -1.0000e+00
       23  2    1    2    0    0 +1.7567515258e+01 +1.0871447331e+01 -4.3281109971e+01 1.0611688154e+02 9.4661143599e+01 0.0000e+00 0.0000e+00
       25  2    1    2    0    0 -1.7567515258e+01 -1.0871447331e+01 +4.3281109971e+01 1.3388311846e+02 1.2499851587e+02 0.0000e+00 0.0000e+00
      -11  1    3    3    0    0 -4.8831867413e+00 +3.5496899285e+01 -5.9190154410e+01 6.9190676761e+01 0.0000000000e+00 0.0000e+00 1.0000e+00
       11  1    3    3    0    0 +2.2450701999e+01 -2.4625451954e+01 +1.5909044438e+01 3.6926204776e+01 0.0000000000e+00 0.0000e+00 -1.0000e+00
        5  1    4    4  501    0 +7.2294470155e+00 -1.6292515910e+01 +2.7295227603e+01 3.2936764090e+01 4.7000000000e+00 0.0000e+00 1.0000e+00
       -5  1    4    4    0  502 -1.0252987447e+00 +1.0191978403e+01 +3.8622647259e+00 1.1913637148e+01 4.7000000000e+00 0.0000e+00 1.0000e+00
        5  1    4    4  502    0 -1.1832044694e+01 +2.5721526471e+01 -2.5881285629e+01 3.8646153126e+01 4.7000000000e+00 0.0000e+00 1.0000e+00
       -5  1    4    4    0  501 -1.1939618834e+01 -3.0492436295e+01 +3.8004903271e+01 5.0386564100e+01 4.7000000000e+00 0.0000e+00 1.0000e+00
</event>
<event>
10      1 +4.6527485e-10 2.40000000e+02 7.81860800e-03 1.03012300e-01
      -11 -1    0    0    0    0 +0.0000000000e+00 +0.0000000000e+00 +1.2000000000e+02 1.2000000000e+02 0.0000000000e+00 0.0000e+00 1.0000e+00
       11 -1    0    0    0    0 -0.0000000000e+00 -0.0000000000e+00 -1.2000000000e+02 1.2000000000e+02 0.0000000000e+00 0.0000e+00 -1.0000e+00
       23  2    1    2    0    0 +1.7543116958e-01 -2.8419165179e+01 -3.8583020867e+01 1.0613119955e+02 9.4696896960e+01 0.0000e+00 0.0000e+00
       25  2    1    2    0    0 -1.7543116958e-01 +2.8419165179e+01 +3.8583020867e+01 1.3386880045e+02 1.2499810602e+02 0.0000e+00 0.0000e+00
      -11  1    3    3    0    0 -4.3375504135e+01 -2.5272728762e+01 -3.7134192688e+01 6.2442721311e+01 0.0000000000e+00 0.0000e+00 1.0000e+00
       11  1    3    3    0    0 +4.3550935305e+01 -3.1464364163e+00 -1.4488281789e+00 4.3688478242e+01 0.0000000000e+00 0.0000e+00 -1.0000e+00
        5  1    4    4  501    0 -2.8465242307e+01 -1.8822717303e+01 +4.3592968997e+01 5.5560792401e+01 4.7000000000e+00 0.0000e+00 1.0000e+00
       -5  1    4    4    0  502 +3.3710855219e+00 +3.9564173667e+00 -1.8690564597e+00 7.2526428303e+00 4.7000000000e+00 0.0000e+00 1.0000e+00
        5  1    4    4  502    0 +5.9708371631e+00 +1.6778383614e+01 +2.2679882169e+01 2.9216983217e+01 4.7000000000e+00 0.0000e+00 -1.0000e+00
       -5  1    4    4    0  501 +1.8947888453e+01 +2.6507081502e+01 -2.5820773839e+01 4.1838381998e+01 4.7000000000e+00 0.0000e+00 1.0000e+00
</event>
<event>
10      1 +4.6527485e-10 2.40000000e+02 7.81860800e-03 1.03012300e-01
      -11 -1    0    0    0    0 +0.0000000000e+00 +0.0000000000e+00 +1.2000000000e+02 1.2000000000e+02 0.0000000000e+00 0.0000e+00 1.0000e+00
       11 -1    0    0    0    0 -0.0000000000e+00 -0.0000000000e+00 -1.2000000000e+02 1.2000000000e+02 0.0000000000e+00 0.0000e+00 -1.0000e+00
       23  2    1    2    0    0 -4.1900502229e+01 -2.5999987196e+01 +1.8421182388e+01 1.0438214603e+02 9.0136790643e+01 0.0000e+00 0.0000e+00
       25  2    1    2    0    0 +4.1900502229e+01 +2.5999987196e+01 -1.8421182388e+01 1.3561785397e+02 1.2498484282e+02 0.0000e+00 0.0000e+00
      -13  1    3    3    0    0 +2.8418615835e+01 -2.3862100420e+00 +3.7035892303e+00 2.8758099685e+01 0.0000000000e+00 0.0000e+00 1.0000e+00
       13  1    3    3    0    0 -7.0319118064e+01 -2.3613777154e+01 +1.4717593158e+01 7.5624046342e+01 0.0000000000e+00 0.0000e+00 -1.0000e+00
        5  1    4    4  501    0 +1.9196782103e+01 -8.5774800609e+00 +2.8393709222e+01 3.5642423187e+01 4.7000000000e+00 0.0000e+00 -1.0000e+00
       -5  1    4    4    0  501 +5.3384806097e-01 -1.2387365472e+01 +1.3118725668e+01 1.8652688284e+01 4.7000000000e+00 0.0000e+00 -1.0000e+00
        5  1    4    4  502    0 +5.1882417062e+00 +7.2044283721e+00 -4.8918990491e+00 1.1173285841e+01 4.7000000000e+00 0.0000e+00 -1.0000e+00
       -5  1    4    4    0  502 +1.6981630359e+01 +3.9760404356e+01 -5.5041718229e+01 7.0149456661e+01 4.7000000000e+00 0.0000e+00 -1.0000e+00
</event>
<event>
10      1 +4.6527485e-10 2.40000000e+02 7.81860800e-03 1.03012300e-01
      -11 -1    0    0    0    0 +0.0000000000e+00 +0.0000000000e+00 +1.2000000000e+02 1.2000000000e+02 0.0000000000e+00 0.0000e+00 1.0000e+00
       11 -1    0    0    0    0 -0.0000000000e+00 -0.0000000000e+00 -1.2000000000e+02 1.2000000000e+02 0.0000000000e+00 0.0000e+00 -1.0000e+00
       23  2    1    2    0    0 +6.8317348403e-01 -3.4228665453e+01 +3.8514894533e+01 1.0479404128e+02 9.1248702579e+01 0.0000e+00 0.0000e+00
       25  2    1    2    0    0 -6.8317348403e-01 +3.4228665453e+01 -3.8514894533e+01 1.3520595872e+02 1.2500074363e+02 0.0000e+00 0.0000e+00
      -11  1    3    3    0    0 -2.3053493617e+01 -2.0710529024e+01 -2.2264224313e+01 3.8158685311e+01 0.0000000000e+00 0.0000e+00 -1.0000e+00
       11  1    3    3    0    0 +2.3736667101e+01 -1.3518136429e+01 +6.0779118846e+01 6.6635355970e+01 0.0000000000e+00 0.0000e+00 1.0000e+00
        5  1    4    4  501    0 -1.1295345456e+01 +1.2788366091e+01 -1.4228571523e+01 2.2708354935e+01 4.7000000000e+00 0.0000e+00 -1.0000e+00
       -5  1    4    4    0  501 -2.4251132679e+01 -8.5427746301e+00 -4.8108623200e+01 5.4750580461e+01 4.7000000000e+00 0.0000e+00 -1.0000e+00
        5  1    4    4  502    0 +2.0592379738e+01 +1.5826780195e+01 +2.5925595585e+01 3.6996750952e+01 4.7000000000e+00 0.0000e+00 1.0000e+00
       -5  1    4    4    0  502 +1.4270924913e+01 +1.4156293798e+01 -2.1032953951e+00 2.0750272371e+01 4.7000000000e+00 0.0000e+00 1.0000e+00
</event>
<event>
10      1 +4.6527485e-10 2.40000000e+02 7.81860800e-03 1.03012300e-01
      -11 -1    0    0    0    0 +0.0000000000e+00 +0.0000000000e+00 +1.2000000000e+02 1.2000000000e+02 0.0000000000e+00 0.0000e+00 1.0000e+00
       11 -1    0    0    0    0 -0.0000000000e+00 -0.0000000000e+00 -1.2000000000e+02 1.2000000000e+02 0.0000000000e+00 0.0000e+00 -1.0000e+00
       23  2    1    2    0    0 +2.9786188111e+01 -3.1865958035e+01 +3.0492394994e+01 1.0414086378e+02 8.9514675181e+01 0.0000e+00 0.0000e+00
       25  2    1    2    0    0 -2.9786188111e+01 +3.1865958035e+01 -3.0492394994e+01 1.3585913622e+02 1.2500104983e+02 0.0000e+00 0.0000e+00
      -11  1    3    3    0    0 +8.5243961430e-01 +1.0350983696e+01 +4.8717551915e+01 4.9812341658e+01 0.0000000000e+00 0.0000e+00 1.0000e+00
       11  1    3    3    0    0 +2.8933748497e+01 -4.2216941731e+01 -1.8225156922e+01 5.4328522122e+01 0.0000000000e+00 0.0000e+00 -1.0000e+00
        5  1    4    4  501    0 -1.8275583357e+01 -1.1154286493e+01 -4.2796315552e+00 2.2334285313e+01 4.7000000000e+00 0.0000e+00 -1.0000e+00
       -5  1    4    4    0  501 -1.6564726952e+01 -2.6253903807e+01 -2.2794183817e+01 3.8798485279e+01 4.7000000000e+00 0.0000e+00 -1.0000e+00
        5  1    4    4  502    0 +6.4557089337e+00 +3.2434183905e+01 +1.0540472629e+01 3.5026333332e+01 4.7000000000e+00 0.0000e+00 1.0000e+00
       -5  1    4    4    0  502 -1.4015867360e+00 +3.6839964430e+01 -1.3959052251e+01 3.9700032296e+01 4.7000000000e+00 0.0000e+00 1.0000e+00
</event>
<event>
10      1 +4.6527485e-10 2.40000000e+02 7.81860800e-03 1.03012300e-01
      -11 -1    0    0    0    0 +0.0000000000e+00 +0.0000000000e+00 +1.2000000000e+02 1.2000000000e+02 0.0000000000e+00 0.0000e+00 1.0000e+00
       11 -1    0    0    0    0 -0.0000000000e+00 -0.0000000000e+00 -1.2000000000e+02 1.2000000000e+02 0.0000000000e+00 0.0000e+00 -1.0000e+00
       23  2    1    2    0    0 -2.5856536387e+01 -3.7556437649e+01 +2.5970475154e+01 1.0443011051e+02 9.0289179408e+01 0.0000e+00 0.0000e+00
       25  2    1    2    0    0 +2.5856536387e+01 +3.7556437649e+01 -2.5970475154e+01 1.3556988949e+02 1.2500273147e+02 0.0000e+00 0.0000e+00
      -13  1    3    3    0    0 -3.0179468160e+01 -1.2037079412e+01 -2.9076312428e+01 4.3601875230e+01 0.0000000000e+00 0.0000e+00 -1.0000e+00
       13  1    3    3    0    0 +4.3229317730e+00 -2.5519358237e+01 +5.5046787582e+01 6.0828235278e+01 0.0000000000e+00 0.0000e+00 1.0000e+00
        5  1    4    4  501    0 +1.2856716993e+01 -1.3337808432e+01 +2.6349136791e+01 3.2550872726e+01 4.7000000000e+00 0.0000e+00 1.0000e+00
       -5  1    4    4    0  501 +1.5264170272e+01 +4.3950310914e+00 +1.3316146238e+01 2.1253727744e+01 4.7000000000e+00 0.0000e+00 1.0000e+00
        5  1    4    4  502    0 -3.0034733455e+00 +3.4544977113e+01 -5.4406254364e+01 6.4687763988e+01 4.7000000000e+00 0.0000e+00 1.0000e+00
       -5  1    4    4    0  502 +7.3912246730e-01 +1.1954237876e+01 -1.1229503820e+01 1.7077525033e+01 4.7000000000e+00 0.0000e+00 -1.0000e+00
</event>
<event>
10      1 +4.6527485e-10 2.40000000e+02 7.81860800e-03 1.03012300e-01
      -11 -1    0    0    0    0 +0.0000000000e+00 +0.0000000000e+00 +1.2000000000e+02 1.2000000000e+02 0.0000000000e+00 0.0000e+00 -1.0000e+00
       11 -1    0    0    0    0 -0.0000000000e+00 -0.0000000000e+00 -1.2000000000e+02 1.2000000000e+02 0.0000000000e+00 0.0000e+00 1.0000e+00
       23  2    1    2    0    0 -3.2476726970e+00 +4.1936979870e+01 -5.8752050513e+01 9.5616603720e+01 6.2621672038e+01 0.0000e+00 0.0000e+00
       25  2    1    2    0    0 +3.2476726970e+00 -4.1936979870e+01 +5.8752050513e+01 1.4438339628e+02 1.2500201608e+02 0.0000e+00 0.0000e+00
      -13  1    3    3    0    0 +1.2917062203e+01 +3.4658716721e+01 -6.6637373990e+01 7.6214281818e+01 0.0000000000e+00 0.0000e+00 1.0000e+00
       13  1    3    3    0    0 -1.6164734900e+01 +7.2782631489e+00 +7.8853234769e+00 1.9402321902e+01 0.0000000000e+00 0.0000e+00 -1.0000e+00
        5  1    4    4  501    0 -9.6580243850e+00 +1.9925010951e+01 +1.1650363467e+01 2.5457895933e+01 4.7000000000e+00 0.0000e+00 1.0000e+00
       -5  1    4    4    0  502 +3.7170957085e+01 -2.9437702104e+01 +5.1039235735e+01 6.9823720470e+01 4.7000000000e+00 0.0000e+00 -1.0000e+00
        5  1    4    4  502    0 -1.8429636323e+00 -4.1754313291e+00 +8.4382616180e+00 1.0682930350e+01 4.7000000000e+00 0.0000e+00 1.0000e+00
       -5  1    4    4    0  501 -2.2422296371e+01 -2.8248857387e+01 -1.2375810307e+01 3.8418849527e+01 4.7000000000e+00 0.0000e+00 1.0000e+00
</event>
<event>
10      1 +4.6527485e-10 2.40000000e+02 7.81860800e-03 1.03012300e-01
      -11 -1    0    0    0    0 +0.0000000000e+00 +0.0000000000e+00 +1.2000000000e+02 1.2000000000e+02 0.0000000000e+00 0.0000e+00 1.0000e+00
       11 -1    0    0    0    0 -0.0000000000e+00 -0.0000000000e+00 -1.2000000000e+02 1.2000000000e+02 0.0000000000e+00 0.0000e+00 -1.0000e+00
       23  2    1    2    0    0 -2.7426053849e+01 -4.3139141857e+01 +7.8513388249e+00 1.0472410058e+02 9.1062175082e+01 0.0000e+00 0.0000e+00
       25  2    1    2    0    0 +2.7426053849e+01 +4.3139141857e+01 -7.8513388249e+00 1.3527589942e+02 1.2499900581e+02 0.0000e+00 0.0000e+00
      -13  1    3    3    0    0 +2.4169239605e+01 -2.4737620081e+01 -2.3305928098e+01 4.1704535423e+01 0.0000000000e+00 0.0000e+00 -1.0000e+00
       13  1    3    3    0    0 -5.1595293454e+01 -1.8401521775e+01 +3.1157266922e+01 6.3019565155e+01 0.0000000000e+00 0.0000e+00 1.0000e+00
        5  1    4    4  501    0 -3.4814050045e+01 +1.0197131247e+01 -2.7621838845e+00 3.6684045933e+01 4.7000000000e+00 0.0000e+00 1.0000e+00
       -5  1    4    4    0  501 -9.0595045920e+00 +1.4447168057e+01 +1.0794425654e+01 2.0722087576e+01 4.7000000000e+00 0.0000e+00 1.0000e+00
        5  1    4    4  502    0 +6.4405392170e+01 +1.9297723892e+01 -1.1374334906e+01 6.8351460720e+01 4.7000000000e+00 0.0000e+00 -1.0000e+00
       -5  1    4    4    0  502 +6.8942163167e+00 -8.0288133915e-01 -4.5092456890e+00 9.5183051931e+00 4.7000000000e+00 0.0000e+00 1.0000e+00
</event>
<event>
10      1 +4.6527485e-10 2.40000000e+02 7.81860800e-03 1.03012300e-01
      -11 -1    0    0    0    0 +0.0000000000e+00 +0.0000000000e+00 +1.2000000000e+02 1.2000000000e+02 0.0000000000e+00 0.0000e+00 1.0000e+00
       11 -1    0    0    0    0 -0.0000000000e+00 -0.0000000000e+00 -1.2000000000e+02 1.2000000000e+02 0.0000000000e+00 0.0000e+00 -1.0000e+00
       23  2    1    2    0    0 +5.1410834430e+01 +1.3857515714e+01 +1.2476565927e-01 1.0413838099e+02 8.9496827818e+01 0.0000e+00 0.0000e+00
       25  2    1    2    0    0 -5.1410834430e+01 -1.3857515714e+01 -1.2476565927e-01 1.3586161901e+02 1.2499303707e+02 0.0000e+00 0.0000e+00
      -13  1    3    3    0    0 -7.2081076703e+00 -4.0282171099e+00 -3.3314412320e+01 3.4322491423e+01 0.0000000000e+00 0.0000e+00 -1.0000e+00
       13  1    3    3    0    0 +5.8618942100e+01 +1.7885732824e+01 +3.3439177979e+01 6.9815889564e+01 0.0000000000e+00 0.0000e+00 1.0000e+00
        5  1    4    4  501    0 -2.0048040100e+01 -4.0882133627e+01 -1.9415380838e+01 4.9722427283e+01 4.7000000000e+00 0.0000e+00 1.0000e+00
       -5  1    4    4    0  501 -8.8903441189e+00 -1.1331741806e+01 -4.0181993473e+00 1.5674262882e+01 4.7000000000e+00 0.0000e+00 -1.0000e+00
        5  1    4    4  502    0 +3.0367234444e+00 -2.5926384932e+00 -9.9308071061e+00 1.1689927006e+01 4.7000000000e+00 0.0000e+00 -1.0000e+00
       -5  1    4    4    0  502 -2.5509173655e+01 +4.0948998213e+01 +3.3239621632e+01 5.8775001842e+01 4.7000000000e+00 0.0000e+00 1.0000e+00
</event>
<event>
10      1 +4.6527485e-10 2.40000000e+02 7.81860800e-03 1.03012300e-01
      -11 -1    0    0    0    0 +0.0000000000e+00 +0.0000000000e+00 +1.2000000000e+02 1.2000000000e+02 0.0000000000e+00 0.0000e+00 1.0000e+00
       11 -1    0    0    0    0 -0.0000000000e+00 -0.0000000000e+00 -1.2000000000e+02 1.2000000000e+02 0.0000000000e+00 0.0000e+00 -1.0000e+00
       23  2    1    2    0    0 -9.9862163111e+00 -4.9469395913e+01 -5.1633540729e+00 1.0509292538e+02 9.2037585207e+01 0.0000e+00 0.0000e+00
       25  2    1    2    0    0 +9.9862163111e+00 +4.9469395913e+01 +5.1633540729e+00 1.3490707462e+02 1.2500525153e+02 0.0000e+00 0.0000e+00
      -13  1    3    3    0    0 -1.6704952910e+01 -7.0640463980e+00 -4.3754060567e+01 4.7364269437e+01 0.0000000000e+00 0.0000e+00 -1.0000e+00
       13  1    3    3    0    0 +6.7187365985e+00 -4.2405349515e+01 +3.8590706494e+01 5.7728655940e+01 0.0000000000e+00 0.0000e+00 1.0000e+00
        5  1    4    4  501    0 -1.4585792378e+00 +3.0256531526e+01 -2.5811066768e+01 4.0073511465e+01 4.7000000000e+00 0.0000e+00 1.0000e+00
       -5  1    4    4    0  502 +7.6310877977e+00 +3.8105394109e+00 +3.5703166922e+01 3.7007564630e+01 4.7000000000e+00 0.0000e+00 1.0000e+00
        5  1    4    4  502    0 +1.6911334194e+01 -3.9224110319e+00 +1.7612703336e+01 2.5172919007e+01 4.7000000000e+00 0.0000e+00 1.0000e+00
       -5  1    4    4    0  501 -1.3097626443e+01 +1.9324736008e+01 -2.2341449417e+01 3.2653079522e+01 4.7000000000e+00 0.0000e+00 1.0000e+00
</event>
<event>
10      1 +4.6527485e-10 2.40000000e+02 7.81860800e-03 1.03012300e-01
      -11 -1    0    0    0    0 +0.0000000000e+00 +0.0000000000e+00 +1.2000000000e+02 1.2000000000e+02 0.0000000000e+00 0.0000e+00 1.0000e+00
       11 -1    0    0    0    0 -0.0000000000e+00 -0.0000000000e+00 -1.2000000000e+02 1.2000000000e+02 0.0000000000e+00 0.0000e+00 -1.0000e+00
       23  2    1    2    0    0 +2.5747478733e+01 +4.4827334079e+01 +3.1829483994e+00 1.0469533407e+02 9.0986588433e+01 0.0000e+00 0.0000e+00
       25  2    1    2    0    0 -2.5747478733e+01 -4.4827334079e+01 -3.1829483994e+00 1.3530466593e+02 1.2499919567e+02 0.0000e+00 0.0000e+00
      -11  1    3    3    0    0 +3.1886709363e+01 +5.0422253086e+01 +3.6781031054e+01 7.0085733824e+01 0.0000000000e+00 0.0000e+00 1.0000e+00
       11  1    3    3    0    0 -6.1392306294e+00 -5.5949190063e+00 -3.3598082655e+01 3.4609600251e+01 0.0000000000e+00 0.0000e+00 -1.0000e+00
        5  1    4    4  501    0 -2.4451113629e+01 +1.3361747495e+01 -8.4318433827e-02 2.8257571789e+01 4.7000000000e+00 0.0000e+00 1.0000e+00
       -5  1    4    4    0  501 -1.5906523195e+01 +6.3382997636e+00 +2.6485995715e+01 3.1887136797e+01 4.7000000000e+00 0.0000e+00 1.0000e+00
        5  1    4    4  502    0 -1.0973159719e+00 -3.3344006629e+01 -1.1829187292e+01 3.5707794001e+01 4.7000000000e+00 0.0000e+00 -1.0000e+00
       -5  1    4    4    0  502 +1.5707474063e+01 -3.1183374709e+01 -1.7755438388e+01 3.9452163338e+01 4.7000000000e+00 0.0000e+00 -1.0000e+00
</event>
<event>
10      1 +4.6527485e-10 2.40000000e+02 7.81860800e-03 1.03012300e-01
      -11 -1    0    0    0    0 +0.0000000000e+00 +0.0000000000e+00 +1.2000000000e+02 1.2000000000e+02 0.0000000000e+00 0.0000e+00 1.0000e+00
       11 -1    0    0    0    0 -0.0000000000e+00 -0.0000000000e+00 -1.2000000000e+02 1.2000000000e+02 0.0000000000e+00 0.0000e+00 -1.0000e+00
       23  2    1    2    0    0 +6.7360806226e+00 -4.6497827096e+01 -2.1905418835e+01 1.0467898428e+02 9.0941847730e+01 0.0000e+00 0.0000e+00
       25  2    1    2    0    0 -6.7360806226e+00 +4.6497827096e+01 +2.1905418835e+01 1.3532101572e+02 1.2499802884e+02 0.0000e+00 0.0000e+00
      -13  1    3    3    0    0 +2.8098064916e+01 -4.7116667626e+01 -4.6629641059e+01 7.1998646136e+01 0.0000000000e+00 0.0000e+00 -1.0000e+00
       13  1    3    3    0    0 -2.1361984293e+01 +6.1884053024e-01 +2.4724222224e+01 3.2680338143e+01 0.0000000000e+00 0.0000e+00 1.0000e+00
        5  1    4    4  501    0 +2.3558710496e+01 +1.8741229539e+01 +1.2306287904e+01 3.2860025058e+01 4.7000000000e+00 0.0000e+00 -1.0000e+00
       -5  1    4    4    0  502 -7.0389898469e+00 +3.0683798685e+00 +9.2442177818e+00 1.2903793841e+01 4.7000000000e+00 0.0000e+00 -1.0000e+00
        5  1    4    4  502    0 -4.2971198376e+01 -1.1380523861e+01 +1.2541574314e+01 4.6426515048e+01 4.7000000000e+00 0.0000e+00 -1.0000e+00
       -5  1    4    4    0  501 +1.9715397105e+01 +3.6068741550e+01 -1.2186661165e+01 4.3130681774e+01 4.7000000000e+00 0.0000e+00 -1.0000e+00
</event>
<event>
10      1 +4.6527485e-10 2.40000000e+02 7.81860800e-03 1.03012300e-01
      -11 -1    0    0    0    0 +0.0000000000e+00 +0.0000000000e+00 +1.2000000000e+02 1.2000000000e+02 0.0000000000e+00 0.0000e+00 1.0000e+00
       11 -1    0    0    0    0 -0.0000000000e+00 -0.0000000000e+00 -1.2000000000e+02 1.2000000000e+02 0.0000000000e+00 0.0000e+00 -1.0000e+00
       23  2    1    2    0    0 +2.3130430520e+01 +2.3388797605e+01 -4.1902934639e+01 1.0411998691e+02 8.9459840556e+01 0.0000e+00 0.0000e+00
       25  2    1    2    0    0 -2.3130430520e+01 -2.3388797605e+01 +4.1902934639e+01 1.3588001309e+02 1.2500187742e+02 0.0000e+00 0.0000e+00
      -13  1    3    3    0    0 -5.9617461506e+00 +4.8456493309e+01 -4.3912674001e+01 6.5665037112e+01 0.0000000000e+00 0.0000e+00 -1.0000e+00
       13  1    3    3    0    0 +2.9092176670e+01 -2.5067695704e+01 +2.0097393618e+00 3.8454949794e+01 0.0000000000e+00 0.0000e+00 1.0000e+00
        5  1    4    4  501    0 -4.3803930322e+01 -1.8606035032e+01 +1.2394970218e+01 4.9403381847e+01 4.7000000000e+00 0.0000e+00 1.0000e+00
       -5  1    4    4    0  502 +3.4913996419e+01 -2.4215379287e+01 +3.6282788125e+00 4.2902519123e+01 4.7000000000e+00 0.0000e+00 1.0000e+00
        5  1    4    4  502    0 +4.3310897605e+00 -4.5881123462e-01 +9.5206260495e+00 1.1476112871e+01 4.7000000000e+00 0.0000e+00 1.0000e+00
       -5  1    4    4    0  501 -1.8571586378e+01 +1.9891427948e+01 +1.6359059559e+01 3.2097999253e+01 4.7000000000e+00 0.0000e+00 1.0000e+00
</event>
<event>
10      1 +4.6527485e-10 2.40000000e+02 7.81860800e-03 1.03012300e-01
      -11 -1    0    0    0    0 +0.0000000000e+00 +0.0000000000e+00 +1.2000000000e+02 1.2000000000e+02 0.0000000000e+00 0.0000e+00 -1.0000e+00
       11 -1    0    0    0    0 -0.0000000000e+00 -0.0000000000e+00 -1.2000000000e+02 1.2000000000e+02 0.0000000000e+00 0.0000e+00 1.0000e+00
       23  2    1    2    0    0 -3.6733884280e+01 -1.3786590057e+01 -3.3407497509e+01 1.0479121926e+02 9.1245221374e+01 0.0000e+00 0.0000e+00
       25  2    1    2    0    0 +3.6733884280e+01 +1.3786590057e+01 +3.3407497509e+01 1.3520878074e+02 1.2500362067e+02 0.0000e+00 0.0000e+00
      -13  1    3    3    0    0 -3.7557799258e+01 +3.4460672821e+01 -1.9477969088e+01 5.4566633909e+01 0.0000000000e+00 0.0000e+00 -1.0000e+00
       13  1    3    3    0    0 +8.2391497748e-01 -4.8247262879e+01 -1.3929528421e+01 5.0224585346e+01 0.0000000000e+00 0.0000e+00 1.0000e+00
        5  1    4    4  501    0 -1.3011930297e+00 +6.5286878614e+00 +5.4937154981e+01 5.5538255877e+01 4.7000000000e+00 0.0000e+00 -1.0000e+00
       -5  1    4    4    0  502 +2.7047732840e+01 +5.4616214471e+00 -1.9204010559e+01 3.3945444203e+01 4.7000000000e+00 0.0000e+00 1.0000e+00
        5  1    4    4  502    0 +3.1350733939e+00 -1.2040823081e+01 -1.8347908115e+01 2.2661549767e+01 4.7000000000e+00 0.0000e+00 1.0000e+00
       -5  1    4    4    0  501 +7.8522710760e+00 +1.3837103830e+01 +1.6022261201e+01 2.3063530897e+01 4.7000000000e+00 0.0000e+00 -1.0000e+00
</event>
<event>
10      1 +4.6527485e-10 2.40000000e+02 7.81860800e-03 1.03012300e-01
      -11 -1    0    0    0    0 +0.0000000000e+00 +0.0000000000e+00 +1.2000000000e+02 1.2000000000e+02 0.0000000000e+00 0.0000e+00 -1.0000e+00
       11 -1    0    0    0    0 -0.0000000000e+00 -0.0000000000e+00 -1.2000000000e+02 1.2000000000e+02 0.0000000000e+00 0.0000e+00 1.0000e+00
       23  2    1    2    0    0 -1.4381286488e+01 -5.5070932110e+01 -2.6867303779e+00 1.0262508768e+02 8.5352569601e+01 0.0000e+00 0.0000e+00
       25  2    1    2    0    0 +1.4381286488e+01 +5.5070932110e+01 +2.6867303779e+00 1.3737491232e+02 1.2500007620e+02 0.0000e+00 0.0000e+00
      -13  1    3    3    0    0 -2.2789547011e+01 -1.4856899681e+01 -3.9163365784e+01 4.7685009601e+01 0.0000000000e+00 0.0000e+00 -1.0000e+00
       13  1    3    3    0    0 +8.4082605229e+00 -4.0214032429e+01 +3.6476635406e+01 5.4940078083e+01 0.0000000000e+00 0.0000e+00 1.0000e+00
        5  1    4    4  501    0 +6.7231710853e+00 -1.5250422220e+01 +3.4401496825e+01 3.8514015516e+01 4.7000000000e+00 0.0000e+00 -1.0000e+00
       -5  1    4    4    0  501 -8.9346828909e+00 -2.6150925520e+00 +5.8143906789e+00 1.1940033768e+01 4.7000000000e+00 0.0000e+00 -1.0000e+00
        5  1    4    4  502    0 +6.2097744734e+00 +4.7467999369e+01 -1.3148062197e+01 4.9867161566e+01 4.7000000000e+00 0.0000e+00 1.0000e+00
       -5  1    4    4    0  502 +1.0383023820e+01 +2.5468447514e+01 -2.4381094929e+01 3.7053701466e+01 4.7000000000e+00 0.0000e+00 1.0000e+00
</event>
<event>
10      1 +4.6527485e-10 2.40000000e+02 7.81860800e-03 1.03012300e-01
      -11 -1    0    0    0    0 +0.0000000000e+00 +0.0000000000e+00 +1.2000000000e+02 1.2000000000e+02 0.0000000000e+00 0.0000e+00 -1.0000e+00
       11 -1    0    0    0    0 -0.0000000000e+00 -0.0000000000e+00 -1.2000000000e+02 1.2000000000e+02 0.0000000000e+00 0.0000e+00 1.0000e+00
       23  2    1    2    0    0 +2.7829197356e+01 +3.6956350189e+01 -2.5873055200e+01 1.0422878980e+02 8.9744022607e+01 0.0000e+00 0.0000e+00
       25  2    1    2    0    0 -2.7829197356e+01 -3.6956350189e+01 +2.5873055200e+01 1.3577121020e+02 1.2499668191e+02 0.0000e+00 0.0000e+00
      -13  1    3    3    0    0 -4.9132859647e-01 +1.1701764987e+01 -5.5100898596e+01 5.6331889136e+01 0.0000000000e+00 0.0000e+00 1.0000e+00
       13  1    3    3    0    0 +2.8320525952e+01 +2.5254585202e+01 +2.9227843396e+01 4.7896900667e+01 0.0000000000e+00 0.0000e+00 -1.0000e+00
        5  1    4    4  501    0 -5.0325713293e+00 +2.5203562880e+01 +3.4872976810e+01 4.3574773294e+01 4.7000000000e+00 0.0000e+00 -1.0000e+00
       -5  1    4    4    0  502 +2.7842132349e+00 -7.5355561516e+00 +3.7631872544e-01 9.3149377687e+00 4.7000000000e+00 0.0000e+00 -1.0000e+00
        5  1    4    4  502    0 -3.2338845542e+00 +2.6595747057e+00 +1.5234838032e+01 1.6483981217e+01 4.7000000000e+00 0.0000e+00 -1.0000e+00
       -5  1    4    4    0  501 -2.2346954707e+01 -5.7283931624e+01 -2.4611078368e+01 6.6397517916e+01 4.7000000000e+00 0.0000e+00 -1.0000e+00
</event>
<event>
10      1 +4.6527485e-10 2.40000000e+02 7.81860800e-03 1.03012300e-01
      -11 -1    0    0    0    0 +0.0000000000e+00 +0.0000000000e+00 +1.2000000000e+02 1.2000000000e+02 0.0000000000e+00 0.0000e+00 1.0000e+00
       11 -1    0    0    0    0 -0.0000000000e+00 -0.0000000000e+00 -1.2000000000e+02 1.2000000000e+02 0.0000000000e+00 0.0000e+00 -1.0000e+00
       23  2    1    2    0    0 +3.6993544606e+01 -3.9276988661e+01 +4.5130016960e+00 1.0377469941e+02 8.8530316127e+01 0.0000e+00 0.0000e+00
       25  2    1    2    0    0 -3.6993544606e+01 +3.9276988661e+01 -4.5130016960e+00 1.3622530059e+02 1.2500304458e+02 0.0000e+00 0.0000e+00
      -11  1    3    3    0    0 -9.4125726526e+00 -4.8854476745e+01 -1.5826720498e+01 5.2209592066e+01 0.0000000000e+00 0.0000e+00 1.0000e+00
       11  1    3    3    0    0 +4.6406117258e+01 +9.5774880839e+00 +2.0339722194e+01 5.1565107349e+01 0.0000000000e+00 0.0000e+00 -1.0000e+00
        5  1    4    4  501    0 -2.7041723552e+00 +2.5602321698e+01 -7.3882460840e+00 2.7193153636e+01 4.7000000000e+00 0.0000e+00 1.0000e+00
       -5  1    4    4    0  501 +2.8774327723e+00 +4.9880178672e+01 +1.0090449028e+01 5.1188074835e+01 4.7000000000e+00 0.0000e+00 1.0000e+00
        5  1    4    4  502    0 -1.6626074370e+01 -2.9958641916e+01 +3.9416805108e-01 3.4586007906e+01 4.7000000000e+00 0.0000e+00 1.0000e+00
       -5  1    4    4    0  502 -2.0540730652e+01 -6.2468697928e+00 -7.6093726913e+00 2.3258064208e+01 4.7000000000e+00 0.0000e+00 1.0000e+00
</event>
<event>
10      1 +4.6527485e-10 2.40000000e+02 7.81860800e-03 1.03012300e-01
      -11 -1    0    0    0    0 +0.0000000000e+00 +0.0000000000e+00 +1.2000000000e+02 1.2000000000e+02 0.0000000000e+00 0.0000e+00 1.0000e+00
       11 -1    0    0    0    0 -0.0000000000e+00 -0.0000000000e+00 -1.2000000000e+02 1.2000000000e+02 0.0000000000e+00 0.0000e+00 -1.0000e+00
       23  2    1    2    0    0 -3.9676797907e+01 +3.8563397267e+00 -2.8871642408e+01 1.0565263299e+02 9.3486830483e+01 0.0000e+00 0.0000e+00
       25  2    1    2    0    0 +3.9676797907e+01 -3.8563397267e+00 +2.8871642408e+01 1.3434736701e+02 1.2500609441e+02 0.0000e+00 0.0000e+00
      -13  1    3    3    0    0 -4.7246531291e+01 +3.1151513788e+00 +2.3410344538e+01 5.2820290785e+01 0.0000000000e+00 0.0000e+00 1.0000e+00
       13  1    3    3    0    0 +7.5697333840e+00 +7.4118834793e-01 -5.2281986947e+01 5.2832342204e+01 0.0000000000e+00 0.0000e+00 -1.0000e+00
        5  1    4    4  501    0 +5.9455880095e+01 -4.5296443679e+00 -1.3054465350e+01 6.1221143582e+01 4.7000000000e+00 0.0000e+00 1.0000e+00
       -5  1    4    4    0  502 +1.1536030729e+00 +9.1366603076e+00 +1.1793544298e+01 1.5683974265e+01 4.7000000000e+00 0.0000e+00 -1.0000e+00
        5  1    4    4  502    0 +8.5207674652e+00 +1.1872331918e+00 -4.4499465392e+00 1.0765919610e+01 4.7000000000e+00 0.0000e+00 -1.0000e+00
       -5  1    4    4    0  501 -2.9453452725e+01 -9.6505888583e+00 +3.4582510000e+01 4.6676329554e+01 4.7000000000e+00 0.0000e+00 1.0000e+00
</event>
<event>
10      1 +4.6527485e-10 2.40000000e+02 7.81860800e-03 1.03012300e-01
      -11 -1    0    0    0    0 +0.0000000000e+00 +0.0000000000e+00 +1.2000000000e+02 1.2000000000e+02 0.0000000000e+00 0.0000e+00 -1.0000e+00
       11 -1    0    0    0    0 -0.0000000000e+00 -0.0000000000e+00 -1.2000000000e+02 1.2000000000e+02 0.0000000000e+00 0.0000e+00 1.0000e+00
       23  2    1    2    0    0 +2.2328117809e+01 +2.8027233280e+01 -4.0159376416e+01 1.0391610904e+02 8.8891571894e+01 0.0000e+00 0.0000e+00
       25  2    1    2    0    0 -2.2328117809e+01 -2.8027233280e+01 +4.0159376416e+01 1.3608389096e+02 1.2498791627e+02 0.0000e+00 0.0000e+00
      -11  1    3    3    0    0 +5.0583313510e+01 +2.0461043028e+01 -4.1284757561e-01 5.4566439600e+01 0.0000000000e+00 0.0000e+00 -1.0000e+00
       11  1    3    3    0    0 -2.8255195701e+01 +7.5661902527e+00 -3.9746528841e+01 4.9349669441e+01 0.0000000000e+00 0.0000e+00 1.0000e+00
        5  1    4    4  501    0 +1.4375541311e+01 -3.2056762646e+01 +3.6564971905e+01 5.0925233330e+01 4.7000000000e+00 0.0000e+00 -1.0000e+00
       -5  1    4    4    0  502 -1.2831039777e+01 -2.3992729860e+01 -9.2279767558e+00 2.9112406684e+01 4.7000000000e+00 0.0000e+00 -1.0000e+00
        5  1    4    4  502    0 -2.7766627962e+01 +2.3084602877e+01 -4.8242175800e+00 3.6732105761e+01 4.7000000000e+00 0.0000e+00 1.0000e+00
       -5  1    4    4    0  501 +3.8940086192e+00 +4.9376563488e+00 +1.7646598847e+01 1.9314145185e+01 4.7000000000e+00 0.0000e+00 1.0000e+00
</event>
<event>
10      1 +4.6527485e-10 2.40000000e+02 7.81860800e-03 1.03012300e-01
      -11 -1    0    0    0    0 +0.0000000000e+00 +0.0000000000e+00 +1.2000000000e+02 1.2000000000e+02 0.0000000000e+00 0.0000e+00 1.0000e+00
       11 -1    0    0    0    0 -0.0000000000e+00 -0.0000000000e+00 -1.2000000000e+02 1.2000000000e+02 0.0000000000e+00 0.0000e+00 -1.0000e+00
       23  2    1    2    0    0 +1.7903144579e+01 +2.9565275360e+01 +3.8815882963e+01 1.0462416755e+02 9.0801517452e+01 0.0000e+00 0.0000e+00
       25  2    1    2    0    0 -1.7903144579e+01 -2.9565275360e+01 -3.8815882963e+01 1.3537583245e+02 1.2500126059e+02 0.0000e+00 0.0000e+00
      -11  1    3    3    0    0 +1.8085649648e+01 +5.1470213278e+01 -5.8577705417e+00 5.4868816770e+01 0.0000000000e+00 0.0000e+00 -1.0000e+00
       11  1    3    3    0    0 -1.8250506918e-01 -2.1904937918e+01 +4.4673653505e+01 4.9755350775e+01 0.0000000000e+00 0.0000e+00 1.0000e+00
        5  1    4    4  501    0 +1.7742472174e+01 +1.5414325108e+00 +3.1053237239e+01 3.6104914846e+01 4.7000000000e+00 0.0000e+00 1.0000e+00
       -5  1    4    4    0  501 +4.7716145137e-01 +6.5361352149e+00 +2.1039084259e+00 8.3345772096e+00 4.7000000000e+00 0.0000e+00 1.0000e+00
        5  1    4    4  502    0 -1.6917913004e+00 -4.8367569500e+00 -1.5285023052e+01 1.6792209661e+01 4.7000000000e+00 0.0000e+00 1.0000e+00
       -5  1    4    4    0  502 -3.4430986904e+01 -3.2806086136e+01 -5.6688005576e+01 7.4144130738e+01 4.7000000000e+00 0.0000e+00 -1.0000e+00
</event>
<event>
10      1 +4.6527485e-10 2.40000000e+02 7.81860800e-03 1.03012300e-01
      -11 -1    0    0    0    0 +0.0000000000e+00 +0.0000000000e+00 +1.2000000000e+02 1.2000000000e+02 0.0000000000e+00 0.0000e+00 -1.0000e+00
       11 -1    0    0    0    0 -0.0000000000e+00 -0.0000000000e+00 -1.2000000000e+02 1.2000000000e+02 0.0000000000e+00 0.0000e+00 1.0000e+00
       23  2    1    2    0    0 -3.0721193251e+01 -4.0555598377e+01 +7.6403010830e+00 1.0482275616e+02 9.1328460694e+01 0.0000e+00 0.0000e+00
       25  2    1    2    0    0 +3.0721193251e+01 +4.0555598377e+01 -7.6403010830e+00 1.3517724384e+02 1.2500385905e+02 0.0000e+00 0.0000e+00
      -13  1    3    3    0    0 -1.6914364684e+01 -5.2054264901e+01 -3.0503053490e+01 6.2659225172e+01 0.0000000000e+00 0.0000e+00 1.0000e+00
       13  1    3    3    0    0 -1.3806828567e+01 +1.1498666523e+01 +3.8143354573e+01 4.2163530983e+01 0.0000000000e+00 0.0000e+00 -1.0000e+00
        5  1    4    4  501    0 +5.3443688218e+01 +4.2373016024e+01 -2.1784708085e+01 7.1752099647e+01 4.7000000000e+00 0.0000e+00 1.0000e+00
       -5  1    4    4    0  502 -1.6061796607e+01 +8.5756040168e+00 +1.4064191773e+01 2.3482201445e+01 4.7000000000e+00 0.0000e+00 1.0000e+00
        5  1    4    4  502    0 -1.7236822891e+01 -1.2659696521e+01 +1.0428429446e+01 2.4253208450e+01 4.7000000000e+00 0.0000e+00 1.0000e+00
       -5  1    4    4    0  501 +1.0576124532e+01 +2.2666748577e+00 -1.0348214217e+01 1.5689734303e+01 4.7000000000e+00 0.0000e+00 1.0000e+00
</event>
<event>
10      1 +4.6527485e-10 2.40000000e+02 7.81860800e-03 1.03012300e-01
      -11 -1    0    0    0    0 +0.0000000000e+00 +0.0000000000e+00 +1.2000000000e+02 1.2000000000e+02 0.0000000000e+00 0.0000e+00 -1.0000e+00
       11 -1    0    0    0    0 -0.0000000000e+00 -0.0000000000e+00 -1.2000000000e+02 1.2000000000e+02 0.0000000000e+00 0.0000e+00 1.0000e+00
       23  2    1    2    0    0 +4.1107638230e+00 -1.4515571860e+01 +5.4058113560e+01 1.0297852459e+02 8.6340585354e+01 0.0000e+00 0.0000e+00
       25  2    1    2    0    0 -4.1107638230e+00 +1.4515571860e+01 -5.4058113560e+01 1.3702147541e+02 1.2500001951e+02 0.0000e+00 0.0000e+00
      -11  1    3    3    0    0 +4.0766020268e+01 +2.3981028797e-01 +6.7209023270e+00 4.1317023677e+01 0.0000000000e+00 0.0000e+00 1.0000e+00
       11  1    3    3    0    0 -3.6655256445e+01 -1.4755382148e+01 +4.7337211233e+01 6.1661500912e+01 0.0000000000e+00 0.0000e+00 -1.0000e+00
        5  1    4    4  501    0 -2.8961199401e+01 -1.1675622200e+00 -1.9316007904e+01 3.5147011731e+01 4.7000000000e+00 0.0000e+00 -1.0000e+00
       -5  1    4    4    0  501 -2.6730486106e+01 +6.9226210163e+00 -3.4280668147e+01 4.4268451270e+01 4.7000000000e+00 0.0000e+00 -1.0000e+00
        5  1    4    4  502    0 +6.1437112077e+00 +8.6361878836e+00 +2.3884533900e+00 1.1837383079e+01 4.7000000000e+00 0.0000e+00 -1.0000e+00
       -5  1    4    4    0  502 +4.5437210477e+01 +1.2432518037e-01 -2.8498908985e+00 4.5768629330e+01 4.7000000000e+00 0.0000e+00 -1.0000e+00
</event>
<event>
10      1 +4.6527485e-10 2.40000000e+02 7.81860800e-03 1.03012300e-01
      -11 -1    0    0    0    0 +0.0000000000e+00 +0.0000000000e+00 +1.2000000000e+02 1.2000000000e+02 0.0000000000e+00 0.0000e+00 -1.0000e+00
       11 -1    0    0    0    0 -0.0000000000e+00 -0.0000000000e+00 -1.2000000000e+02 1.2000000000e+02 0.0000000000e+00 0.0000e+00 1.0000e+00
       23  2    1    2    0    0 -1.6395587108e+01 +1.9067364982e+01 -4.4901149954e+01 1.0482032481e+02 9.1317071476e+01 0.0000e+00 0.0000e+00
       25  2    1    2    0    0 +1.6395587108e+01 -1.9067364982e+01 +4.4901149954e+01 1.3517967519e+02 1.2500020653e+02 0.0000e+00 0.0000e+00
      -13  1    3    3    0    0 +9.4617164664e+00 -2.6008026177e+01 +9.8108000560e+00 2.9363128271e+01 0.0000000000e+00 0.0000e+00 -1.0000e+00
       13  1    3    3    0    0 -2.5857303575e+01 +4.5075391159e+01 -5.4711950009e+01 7.5457196543e+01 0.0000000000e+00 0.0000e+00 1.0000e+00
        5  1    4    4  501    0 +1.5789904156e+01 -4.6349999418e+00 +4.7580267735e+01 5.0564574313e+01 4.7000000000e+00 0.0000e+00 1.0000e+00
       -5  1    4    4    0  501 +2.0047522228e+01 -1.6284679192e+01 +3.2335869995e+01 4.1650839273e+01 4.7000000000e+00 0.0000e+00 1.0000e+00
        5  1    4    4  502    0 -1.9340018401e+00 +1.2127454297e+00 -2.6400192890e+00 5.8541281538e+00 4.7000000000e+00 0.0000e+00 1.0000e+00
       -5  1    4    4    0  502 -1.7507837435e+01 +6.3956872132e-01 -3.2374968488e+01 3.7110133446e+01 4.7000000000e+00 0.0000e+00 1.0000e+00
</event>
<event>
10      1 +4.6527485e-10 2.40000000e+02 7.81860800e-03 1.03012300e-01
      -11 -1    0    0    0    0 +0.0000000000e+00 +0.0000000000e+00 +1.2000000000e+02 1.2000000000e+02 0.0000000000e+00 0.0000e+00 -1.0000e+00
       11 -1    0    0    0    0 -0.0000000000e+00 -0.0000000000e+00 -1.2000000000e+02 1.2000000000e+02 0.0000000000e+00 0.0000e+00 1.0000e+00
       23  2    1    2    0    0 -2.7388229820e+01 +2.1905746755e+01 -3.7525181286e+01 1.0485801016e+02 9.1417100104e+01 0.0000e+00 0.0000e+00
       25  2    1    2    0    0 +2.7388229820e+01 -2.1905746755e+01 +3.7525181286e+01 1.3514198984e+02 1.2500096525e+02 0.0000e+00 0.0000e+00
      -13  1    3    3    0    0 -9.0749792746e+00 +2.9194135960e+01 -6.4541366539e+01 7.1415970329e+01 0.0000000000e+00 0.0000e+00 1.0000e+00
       13  1    3    3    0    0 -1.8313250545e+01 -7.2883892058e+00 +2.7016185253e+01 3.3442039835e+01 0.0000000000e+00 0.0000e+00 -1.0000e+00
        5  1    4    4  501    0 +3.0429243727e+01 -8.9499543210e+00 +6.3950596453e+01 7.1538865960e+01 4.7000000000e+00 0.0000e+00 -1.0000e+00
       -5  1    4    4    0  502 -9.4145263903e+00 -2.0508119505e+00 -3.7372319021e+01 3.8879549454e+01 4.7000000000e+00 0.0000e+00 1.0000e+00
        5  1    4    4  502    0 -6.4028644432e-01 -6.5747116969e-01 -2.8522774564e+00 5.5738426384e+00 4.7000000000e+00 0.0000e+00 -1.0000e+00
       -5  1    4    4    0  501 +7.0137989282e+00 -1.0247509313e+01 +1.3799181310e+01 1.9149731783e+01 4.7000000000e+00 0.0000e+00 -1.0000e+00
</event>
<event>
10      1 +4.6527485e-10 2.40000000e+02 7.81860800e-03 1.03012300e-01
      -11 -1    0    0    0    0 +0.0000000000e+00 +0.0000000000e+00 +1.2000000000e+02 1.2000000000e+02 0.0000000000e+00 0.0000e+00 1.0000e+00
       11 -1    0    0    0    0 -0.0000000000e+00 -0.0000000000e+00 -1.2000000000e+02 1.2000000000e+02 0.0000000000e+00 0.0000e+00 -1.0000e+00
       23  2    1    2    0    0 +3.3772414721e+01 +2.0728277617e+00 -4.1681863216e+01 1.0395869741e+02 8.9023370158e+01 0.0000e+00 0.0000e+00
       25  2    1    2    0    0 -3.3772414721e+01 -2.0728277617e+00 +4.1681863216e+01 1.3604130259e+02 1.2499994272e+02 0.0000e+00 0.0000e+00
      -11  1    3    3    0    0 +5.3436772731e+01 -1.7539803179e+01 -2.9771170459e+00 5.6320481189e+01 0.0000000000e+00 0.0000e+00 1.0000e+00
       11  1    3    3    0    0 -1.9664358010e+01 +1.9612630940e+01 -3.8704746170e+01 4.7638216218e+01 0.0000000000e+00 0.0000e+00 -1.0000e+00
        5  1    4    4  501    0 -7.7741272226e+00 +1.4249059344e+01 -2.8763426897e+01 3.3360118002e+01 4.7000000000e+00 0.0000e+00 -1.0000e+00
       -5  1    4    4    0  501 +8.6519866606e+00 +7.3652296715e+00 -5.0166424476e+00 1.3280067121e+01 4.7000000000e+00 0.0000e+00 -1.0000e+00
        5  1    4    4  502    0 -4.5988061691e+00 -1.0293341859e+01 +3.4820357658e+01 3.6900531328e+01 4.7000000000e+00 0.0000e+00 1.0000e+00
       -5  1    4    4    0  502 -3.0051467990e+01 -1.3393774917e+01 +4.0641574902e+01 5.2500586143e+01 4.7000000000e+00 0.0000e+00 1.0000e+00
</event>
<event>
10      1 +4.6527485e-10 2.40000000e+02 7.81860800e-03 1.03012300e-01
      -11 -1    0    0    0    0 +0.0000000000e+00 +0.0000000000e+00 +1.2000000000e+02 1.2000000000e+02 0.0000000000e+00 0.0000e+00 1.0000e+00
       11 -1    0    0    0    0 -0.0000000000e+00 -0.0000000000e+00 -1.2000000000e+02 1.2000000000e+02 0.0000000000e+00 0.0000e+00 -1.0000e+00
       23  2    1    2    0    0 +1.8600983259e+01 +2.1453096102e+01 -4.4198686610e+01 1.0440495934e+02 9.0225493775e+01 0.0000e+00 0.0000e+00
       25  2    1    2    0    0 -1.8600983259e+01 -2.1453096102e+01 +4.4198686610e+01 1.3559504066e+02 1.2500503687e+02 0.0000e+00 0.0000e+00
      -11  1    3    3    0    0 -2.9088540096e+01 -8.2937308873e+00 -3.6920964007e+01 4.7729306722e+01 0.0000000000e+00 0.0000e+00 -1.0000e+00
       11  1    3    3    0    0 +4.7689523355e+01 +2.9746826989e+01 -7.2777226024e+00 5.6675652621e+01 0.0000000000e+00 0.0000e+00 1.0000e+00
        5  1    4    4  501    0 +2.7345778062e+01 +3.3693908463e+01 +1.7559583833e+01 4.7047848301e+01 4.7000000000e+00 0.0000e+00 -1.0000e+00
       -5  1    4    4    0  501 +1.5050492633e+00 -3.8773479613e+00 +1.1528738935e+01 1.3126340767e+01 4.7000000000e+00 0.0000e+00 -1.0000e+00
        5  1    4    4  502    0 -2.0908722635e+01 -1.0678173679e+01 +1.1496062981e+01 2.6560262412e+01 4.7000000000e+00 0.0000e+00 1.0000e+00
       -5  1    4    4    0  502 -2.6543087950e+01 -4.0591482925e+01 +3.6143008600e+00 4.8860589176e+01 4.7000000000e+00 0.0000e+00 1.0000e+00
</event>
<event>
10      1 +4.6527485e-10 2.40000000e+02 7.81860800e-03 1.03012300e-01
      -11 -1    0    0    0    0 +0.0000000000e+00 +0.0000000000e+00 +1.2000000000e+02 1.2000000000e+02 0.0000000000e+00 0.0000e+00 1.0000e+00
       11 -1    0    0    0    0 -0.0000000000e+00 -0.0000000000e+00 -1.2000000000e+02 1.2000000000e+02 0.0000000000e+00 0.0000e+00 -1.0000e+00
       23  2    1    2    0    0 +1.8478977993e+01 +2.7070606711e+01 -3.9044274512e+01 1.0500217454e+02 9.1797118201e+01 0.0000e+00 0.0000e+00
       25  2    1    2    0    0 -1.8478977993e+01 -2.7070606711e+01 +3.9044274512e+01 1.3499782546e+02 1.2500266850e+02 0.0000e+00 0.0000e+00
      -11  1    3    3    0    0 +4.3696061275e+01 +4.1021194431e+01 -4.5766353545e+01 7.5409835435e+01 0.0000000000e+00 0.0000e+00 -1.0000e+00
       11  1    3    3    0    0 -2.5217083283e+01 -1.3950587720e+01 +6.7220790331e+00 2.9592339102e+01 0.0000000000e+00 0.0000e+00 1.0000e+00
        5  1    4    4  501    0 -4.1970617821e+00 -9.3678071161e+00 -4.3611259883e+00 1.2102915254e+01 4.7000000000e+00 0.0000e+00 1.0000e+00
       -5  1    4    4    0  501 -1.9920401857e+01 -9.6771179560e+00 -3.3970855553e+01 4.0823743693e+01 4.7000000000e+00 0.0000e+00 1.0000e+00
        5  1    4    4  502    0 +9.3279011673e+00 +5.4498871259e+00 +2.4611507891e+01 2.7286028119e+01 4.7000000000e+00 0.0000e+00 1.0000e+00
       -5  1    4    4    0  502 -3.6894155206e+00 -1.3475568765e+01 +5.2764748163e+01 5.4785138396e+01 4.7000000000e+00 0.0000e+00 1.0000e+00
</event>
<event>
10      1 +4.6527485e-10 2.40000000e+02 7.81860800e-03 1.03012300e-01
      -11 -1    0    0    0    0 +0.0000000000e+00 +0.0000000000e+00 +1.2000000000e+02 1.2000000000e+02 0.0000000000e+00 0.0000e+00 1.0000e+00
       11 -1    0    0    0    0 -0.0000000000e+00 -0.0000000000e+00 -1.2000000000e+02 1.2000000000e+02 0.0000000000e+00 0.0000e+00 -1.0000e+00
       23  2    1    2    0    0 +1.1883088330e+01 -3.8270837699e+01 -3.1147071173e+01 1.0509772118e+02 9.2030028510e+01 0.0000e+00 0.0000e+00
       25  2    1    2    0    0 -1.1883088330e+01 +3.8270837699e+01 +3.1147071173e+01 1.3490227882e+02 1.2499047957e+02 0.0000e+00 0.0000e+00
      -11  1    3    3    0    0 -2.1269062616e+01 -1.6150970040e+01 -5.3215951065e+01 5.9541282364e+01 0.0000000000e+00 0.0000e+00 -1.0000e+00
       11  1    3    3    0    0 +3.3152150946e+01 -2.2119867659e+01 +2.2068879893e+01 4.5556438813e+01 0.0000000000e+00 0.0000e+00 1.0000e+00
        5  1    4    4  501    0 -3.3270296927e+01 +1.9227258362e+01 +1.1240079107e+01 4.0311654643e+01 4.7000000000e+00 0.0000e+00 -1.0000e+00
       -5  1    4    4    0  501 -2.0891074013e+01 +2.4432714597e+01 -1.4850853792e+01 3.5721595350e+01 4.7000000000e+00 0.0000e+00 -1.0000e+00
        5  1    4    4  502    0 +1.7786826991e+01 -1.1530481436e+01 +1.3870807724e+01 2.5764559446e+01 4.7000000000e+00 0.0000e+00 1.0000e+00
       -5  1    4    4    0  502 +2.4491455619e+01 +6.1413461757e+00 +2.0887038133e+01 3.3104469384e+01 4.7000000000e+00 0.0000e+00 1.0000e+00
</event>
<event>
10      1 +4.6527485e-10 2.40000000e+02 7.81860800e-03 1.03012300e-01
      -11 -1    0    0    0    0 +0.0000000000e+00 +0.0000000000e+00 +1.2000000000e+02 1.2000000000e+02 0.0000000000e+00 0.0000e+00 -1.0000e+00
       11 -1    0    0    0    0 -0.0000000000e+00 -0.0000000000e+00 -1.2000000000e+02 1.2000000000e+02 0.0000000000e+00 0.0000e+00 1.0000e+00
       23  2    1    2    0    0 +4.4389460642e+01 -1.1886024155e+01 -2.3004539409e+01 1.0484720860e+02 9.1389422422e+01 0.0000e+00 0.0000e+00
       25  2    1    2    0    0 -4.4389460642e+01 +1.1886024155e+01 +2.3004539409e+01 1.3515279140e+02 1.2500146561e+02 0.0000e+00 0.0000e+00
      -11  1    3    3    0    0 +2.1642100506e+01 -4.8779720933e+01 +4.4346176203e+00 5.3549113177e+01 0.0000000000e+00 0.0000e+00 -1.0000e+00
       11  1    3    3    0    0 +2.2747360136e+01 +3.6893696778e+01 -2.7439157029e+01 5.1298095419e+01 0.0000000000e+00 0.0000e+00 1.0000e+00
        5  1    4    4  501    0 -8.7208910612e+00 -1.5828381760e+01 -2.9543214457e+01 3.4949722896e+01 4.7000000000e+00 0.0000e+00 1.0000e+00
       -5  1    4    4    0  501 +8.5705997014e+00 -4.4399040727e+00 -9.8852696804e+00 1.4593713855e+01 4.7000000000e+00 0.0000e+00 1.0000e+00
        5  1    4    4  502    0 -2.2794529361e+01 +2.7322354266e+01 +4.1821578584e+01 5.5111124528e+01 4.7000000000e+00 0.0000e+00 -1.0000e+00
       -5  1    4    4    0  502 -2.1444639922e+01 +4.8319557207e+00 +2.0611444962e+01 3.0498230127e+01 4.7000000000e+00 0.0000e+00 -1.0000e+00
</event>
<event>
10      1 +4.6527485e-10 2.40000000e+02 7.81860800e-03 1.03012300e-01
      -11 -1    0    0    0    0 +0.0000000000e+00 +0.0000000000e+00 +1.2000000000e+02 1.2000000000e+02 0.0000000000e+00 0.0000e+00 1.0000e+00
       11 -1    0    0    0    0 -0.0000000000e+00 -0.0000000000e+00 -1.2000000000e+02 1.2000000000e+02 0.0000000000e+00 0.0000e+00 -1.0000e+00
       23  2    1    2    0    0 +1.6344161550e+01 +4.7736394945e+01 +1.1614312748e+01 1.0470192381e+02 9.1003876673e+01 0.0000e+00 0.0000e+00
       25  2    1    2    0    0 -1.6344161550e+01 -4.7736394945e+01 -1.1614312748e+01 1.3529807619e+02 1.2499912856e+02 0.0000e+00 0.0000e+00
      -13  1    3    3    0    0 -2.5262350629e+00 +4.3704858560e+01 +4.7103646357e+01 6.4305909724e+01 0.0000000000e+00 0.0000e+00 1.0000e+00
       13  1    3    3    0    0 +1.8870396613e+01 +4.0315363847e+00 -3.5489333609e+01 4.0396014085e+01 0.0000000000e+00 0.0000e+00 -1.0000e+00
        5  1    4    4  501    0 +5.2535229793e+00 -3.3487719100e+01 -5.1632763834e+00 3.4608904306e+01 4.7000000000e+00 0.0000e+00 1.0000e+00
       -5  1    4    4    0  502 -1.3964069989e+01 +2.4479318279e+01 +5.5029752530e+00 2.9096477634e+01 4.7000000000e+00 0.0000e+00 1.0000e+00
        5  1    4    4  502    0 -1.6339674644e+01 +3.9988551545e+00 +1.2406461804e+01 2.1423960990e+01 4.7000000000e+00 0.0000e+00 1.0000e+00
       -5  1    4    4    0  501 +8.7060601043e+00 -4.2726849278e+01 -2.4360473422e+01 5.0168733262e+01 4.7000000000e+00 0.0000e+00 1.0000e+00
</event>
<event>
10      1 +4.6527485e-10 2.40000000e+02 7.81860800e-03 1.03012300e-01
      -11 -1    0    0    0    0 +0.0000000000e+00 +0.0000000000e+00 +1.2000000000e+02 1.2000000000e+02 0.0000000000e+00 0.0000e+00 1.0000e+00
       11 -1    0    0    0    0 -0.0000000000e+00 -0.0000000000e+00 -1.2000000000e+02 1.2000000000e+02 0.0000000000e+00 0.0000e+00 -1.0000e+00
       23  2    1    2    0    0 +1.5150115854e+01 +3.3752801451e+01 +7.5096623816e+00 1.0942264146e+02 1.0270414703e+02 0.0000e+00 0.0000e+00
       25  2    1    2    0    0 -1.5150115854e+01 -3.3752801451e+01 -7.5096623816e+00 1.3057735854e+02 1.2500109567e+02 0.0000e+00 0.0000e+00
      -13  1    3    3    0    0 -4.2392565569e+00 +6.0435317510e+01 +3.1835584398e+01 6.8439048303e+01 0.0000000000e+00 0.0000e+00 1.0000e+00
       13  1    3    3    0    0 +1.9389372411e+01 -2.6682516059e+01 -2.4325922017e+01 4.0983593153e+01 0.0000000000e+00 0.0000e+00 -1.0000e+00
        5  1    4    4  501    0 -3.1715627807e+01 +2.8338502318e+01 +1.2388670765e+01 4.4547962065e+01 4.7000000000e+00 0.0000e+00 -1.0000e+00
       -5  1    4    4    0  501 -9.7330640638e+00 -1.6880356385e+00 +4.0653581287e+00 1.1670438599e+01 4.7000000000e+00 0.0000e+00 -1.0000e+00
        5  1    4    4  502    0 +1.6372386248e+01 -3.2407117294e+01 -1.1806460306e+00 3.6630045152e+01 4.7000000000e+00 0.0000e+00 1.0000e+00
       -5  1    4    4    0  502 +9.9261897687e+00 -2.7996150837e+01 -2.2783045245e+01 3.7728912728e+01 4.7000000000e+00 0.0000e+00 1.0000e+00
</event>
<event>
10      1 +4.6527485e-10 2.40000000e+02 7.81860800e-03 1.03012300e-01
      -11 -1    0    0    0    0 +0.0000000000e+00 +0.0000000000e+00 +1.2000000000e+02 1.2000000000e+02 0.0000000000e+00 0.0000e+00 1.0000e+00
       11 -1    0    0    0    0 -0.0000000000e+00 -0.0000000000e+00 -1.2000000000e+02 1.2000000000e+02 0.0000000000e+00 0.0000e+00 -1.0000e+00
       23  2    1    2    0    0 -4.4672559869e+01 +1.1543256724e+01 -2.5232370324e+01 1.0438854238e+02 9.0174336082e+01 0.0000e+00 0.0000e+00
       25  2    1    2    0    0 +4.4672559869e+01 -1.1543256724e+01 +2.5232370324e+01 1.3561145762e+02 1.2499964217e+02 0.0000e+00 0.0000e+00
      -11  1    3    3    0    0 -7.1810528225e+01 +1.6372292832e+01 -2.0147467062e+01 7.6359179969e+01 0.0000000000e+00 0.0000e+00 -1.0000e+00
       11  1    3    3    0    0 +2.7137968356e+01 -4.8290361082e+00 -5.0849032614e+00 2.8029362415e+01 0.0000000000e+00 0.0000e+00 1.0000e+00
        5  1    4    4  501    0 +3.0978634276e+01 -9.7753555565e+00 +2.1037221587e+01 3.8985741624e+01 4.7000000000e+00 0.0000e+00 1.0000e+00
       -5  1    4    4    0  501 +2.6449879754e+01 -3.5876128245e+01 +2.3295962784e+01 5.0512222272e+01 4.7000000000e+00 0.0000e+00 1.0000e+00
        5  1    4    4  502    0 +2.6766480434e+00 +1.9253487270e+01 -1.0153056244e+01 2.2428458884e+01 4.7000000000e+00 0.0000e+00 1.0000e+00
       -5  1    4    4    0  502 -1.5432602203e+01 +1.4854739807e+01 -8.9477578034e+00 2.3685034837e+01 4.7000000000e+00 0.0000e+00 1.0000e+00
</event>
<event>
10      1 +4.6527485e-10 2.40000000e+02 7.81860800e-03 1.03012300e-01
      -11 -1    0    0    0    0 +0.0000000000e+00 +0.0000000000e+00 +1.2000000000e+02 1.2000000000e+02 0.0000000000e+00 0.0000e+00 1.0000e+00
       11 -1    0    0    0    0 -0.0000000000e+00 -0.0000000000e+00 -1.2000000000e+02 1.2000000000e+02 0.0000000000e+00 0.0000e+00 -1.0000e+00
       23  2    1    2    0    0 +3.2917943076e+01 +2.0894884051e+01 -1.1042281255e+01 1.0859496653e+02 1.0075091872e+02 0.0000e+00 0.0000e+00
       25  2    1    2    0    0 -3.2917943076e+01 -2.0894884051e+01 +1.1042281255e+01 1.3140503347e+02 1.2500065476e+02 0.0000e+00 0.0000e+00
      -13  1    3    3    0    0 +6.3217810166e+01 +1.3373190988e+01 -3.0869123743e+01 7.1611706865e+01 0.0000000000e+00 0.0000e+00 -1.0000e+00
       13  1    3    3    0    0 -3.0299867090e+01 +7.5216930630e+00 +1.9826842488e+01 3.6983259662e+01 0.0000000000e+00 0.0000e+00 1.0000e+00
        5  1    4    4  501    0 +3.8877922594e-01 -1.9795054789e+01 +2.9183116552e+00 2.0557283047e+01 4.7000000000e+00 0.0000e+00 1.0000e+00
       -5  1    4    4    0  502 -4.2909840388e+01 +2.3932484217e+01 +5.5841702723e+00 4.9671834681e+01 4.7000000000e+00 0.0000e+00 -1.0000e+00
        5  1    4    4  502    0 -2.0313454746e+01 -3.3107757607e-02 -4.3713271452e+00 2.1303427913e+01 4.7000000000e+00 0.0000e+00 -1.0000e+00
       -5  1    4    4    0  501 +2.9916572832e+01 -2.4999205722e+01 +6.9111264727e+00 3.9872487831e+01 4.7000000000e+00 0.0000e+00 1.0000e+00
</event>
<event>
10      1 +4.6527485e-10 2.40000000e+02 7.81860800e-03 1.03012300e-01
      -11 -1    0    0    0    0 +0.0000000000e+00 +0.0000000000e+00 +1.2000000000e+02 1.2000000000e+02 0.0000000000e+00 0.0000e+00 1.0000e+00
       11 -1    0    0    0    0 -0.0000000000e+00 -0.0000000000e+00 -1.2000000000e+02 1.2000000000e+02 0.0000000000e+00 0.0000e+00 -1.0000e+00
       23  2    1    2    0    0 -2.0788189610e+01 -3.0349159987e+01 -3.6155673811e+01 1.0477928413e+02 9.1204414888e+01 0.0000e+00 0.0000e+00
       25  2    1    2    0    0 +2.0788189610e+01 +3.0349159987e+01 +3.6155673811e+01 1.3522071587e+02 1.2499675561e+02 0.0000e+00 0.0000e+00
      -13  1    3    3    0    0 +4.4534062894e+00 -4.5438692230e+01 +1.3023991451e+01 4.7477699318e+01 0.0000000000e+00 0.0000e+00 1.0000e+00
       13  1    3    3    0    0 -2.5241595899e+01 +1.5089532243e+01 -4.9179665261e+01 5.7301584813e+01 0.0000000000e+00 0.0000e+00 -1.0000e+00
        5  1    4    4  501    0 +2.4188134257e+01 +4.2713823309e+01 +7.2991971885e+00 4.9848819646e+01 4.7000000000e+00 0.0000e+00 1.0000e+00
       -5  1    4    4    0  502 +6.5429266220e+00 -3.7536388073e+01 +2.8830689970e+01 4.8011342436e+01 4.7000000000e+00 0.0000e+00 1.0000e+00
        5  1    4    4  502    0 -7.7106566248e+00 +4.2453285749e-01 +6.6458309858e+00 1.1220139180e+01 4.7000000000e+00 0.0000e+00 1.0000e+00
       -5  1    4    4    0  501 -2.2322146449e+00 +2.4747191894e+01 -6.6200443336e+00 2.6140414607e+01 4.7000000000e+00 0.0000e+00 1.0000e+00
</event>
<event>
10      1 +4.6527485e-10 2.40000000e+02 7.81860800e-03 1.03012300e-01
      -11 -1    0    0    0    0 +0.0000000000e+00 +0.0000000000e+00 +1.2000000000e+02 1.2000000000e+02 0.0000000000e+00 0.0000e+00 1.0000e+00
       11 -1    0    0    0    0 -0.0000000000e+00 -0.0000000000e+00 -1.2000000000e+02 1.2000000000e+02 0.0000000000e+00 0.0000e+00 -1.0000e+00
       23  2    1    2    0    0 -1.3300259848e+01 -2.1254400329e+01 +4.2480031829e+01 1.0561515495e+02 9.3388229485e+01 0.0000e+00 0.0000e+00
       25  2    1    2    0    0 +1.3300259848e+01 +2.1254400329e+01 -4.2480031829e+01 1.3438484505e+02 1.2500434804e+02 0.0000e+00 0.0000e+00
      -11  1    3    3    0    0 -1.5630310302e+01 -5.3930114333e+01 +4.6109940552e+01 7.2655973256e+01 0.0000000000e+00 0.0000e+00 1.0000e+00
       11  1    3    3    0    0 +2.3300504535e+00 +3.2675714004e+01 -3.6299087234e+00 3.2959181697e+01 0.0000000000e+00 0.0000e+00 -1.0000e+00
        5  1    4    4  501    0 +6.6040934250e+00 -1.2070207242e+00 +6.6414606948e+00 1.0548457193e+01 4.7000000000e+00 0.0000e+00 -1.0000e+00
       -5  1    4    4    0  501 +4.7239498368e+01 -7.4911878306e+00 -4.6512963319e+01 6.6882238733e+01 4.7000000000e+00 0.0000e+00 -1.0000e+00
        5  1    4    4  502    0 -1.2673304440e-01 +6.1164715351e+00 +4.9918576415e+00 9.1889024381e+00 4.7000000000e+00 0.0000e+00 -1.0000e+00
       -5  1    4    4    0  502 -4.0416598901e+01 +2.3836137348e+01 -7.6003868458e+00 4.7765246682e+01 4.7000000000e+00 0.0000e+00 -1.0000e+00
</event>
<event>
10      1 +4.6527485e-10 2.40000000e+02 7.81860800e-03 1.03012300e-01
      -11 -1    0    0    0    0 +0.0000000000e+00 +0.0000000000e+00 +1.2000000000e+02 1.2000000000e+02 0.0000000000e+00 0.0000e+00 -1.0000e+00
       11 -1    0    0    0    0 -0.0000000000e+00 -0.0000000000e+00 -1.2000000000e+02 1.2000000000e+02 0.0000000000e+00 0.0000e+00 1.0000e+00
       23  2    1    2    0    0 +1.4793529401e+01 -4.8394404822e+01 -8.5293155001e-01 1.0514384445e+02 9.2160911474e+01 0.0000e+00 0.0000e+00
       25  2    1    2    0    0 -1.4793529401e+01 +4.8394404822e+01 +8.5293155001e-01 1.3485615555e+02 1.2499835306e+02 0.0000e+00 0.0000e+00
      -13  1    3    3    0    0 +5.2710682285e+01 -4.0134343107e+01 +1.4790840651e+00 6.6267406869e+01 0.0000000000e+00 0.0000e+00 1.0000e+00
       13  1    3    3    0    0 -3.7917152883e+01 -8.2600617153e+00 -2.3320156151e+00 3.8876437583e+01 0.0000000000e+00 0.0000e+00 -1.0000e+00
        5  1    4    4  501    0 +1.9504953850e+01 +6.4911200081e+01 -2.2313122089e+01 7.1511345519e+01 4.7000000000e+00 0.0000e+00 -1.0000e+00
       -5  1    4    4    0  501 +6.5996779435e+00 +2.8646900813e+00 +1.3157605471e+00 8.6938727870e+00 4.7000000000e+00 0.0000e+00 1.0000e+00
        5  1    4    4  502    0 -1.0898996866e+01 -1.3059689027e+01 +1.8471637288e+00 1.7743889765e+01 4.7000000000e+00 0.0000e+00 -1.0000e+00
       -5  1    4    4    0  502 -2.9999164329e+01 -6.3217963129e+00 +2.0003129363e+01 3.6907047476e+01 4.7000000000e+00 0.0000e+00 -1.0000e+00
</event>
<event>
10      1 +4.6527485e-10 2.40000000e+02 7.81860800e-03 1.03012300e-01
      -11 -1    0    0    0    0 +0.0000000000e+00 +0.0000000000e+00 +1.2000000000e+02 1.2000000000e+02 0.0000000000e+00 0.0000e+00 -1.0000e+00
       11 -1    0    0    0    0 -0.0000000000e+00 -0.0000000000e+00 -1.2000000000e+02 1.2000000000e+02 0.0000000000e+00 0.0000e+00 1.0000e+00
       23  2    1    2    0    0 +1.6308741474e+01 -3.4323636481e+01 -3.1837897361e+01 1.0553495565e+02 9.3165916975e+01 0.0000e+00 0.0000e+00
       25  2    1    2    0    0 -1.6308741474e+01 +3.4323636481e+01 +3.1837897361e+01 1.3446504435e+02 1.2499243727e+02 0.0000e+00 0.0000e+00
      -13  1    3    3    0    0 +5.1439084583e+01 -2.1343974493e+01 -3.8218219234e+01 6.7543889075e+01 0.0000000000e+00 0.0000e+00 1.0000e+00
       13  1    3    3    0    0 -3.5130343109e+01 -1.2979661988e+01 +6.3803218726e+00 3.7991066575e+01 0.0000000000e+00 0.0000e+00 -1.0000e+00
        5  1    4    4  501    0 -1.6111162114e+01 +1.9472774011e+01 +3.3586267905e+01 4.2295222710e+01 4.7000000000e+00 0.0000e+00 1.0000e+00
       -5  1    4    4    0  502 +1.7718215230e+00 +1.3500251425e+01 -3.6119837860e+01 3.8886100692e+01 4.7000000000e+00 0.0000e+00 1.0000e+00
        5  1    4    4  502    0 +5.1572329764e+00 -5.4362886598e+00 -6.5034675847e+00 1.0978860460e+01 4.7000000000e+00 0.0000e+00 1.0000e+00
       -5  1    4    4    0  501 -7.1266338593e+00 +6.7868997055e+00 +4.0874934901e+01 4.2304860488e+01 4.7000000000e+00 0.0000e+00 1.0000e+00
</event>
<event>
10      1 +4.6527485e-10 2.40000000e+02 7.81860800e-03 1.03012300e-01
      -11 -1    0    0    0    0 +0.0000000000e+00 +0.0000000000e+00 +1.2000000000e+02 1.2000000000e+02 0.0000000000e+00 0.0000e+00 -1.0000e+00
       11 -1    0    0    0    0 -0.0000000000e+00 -0.0000000000e+00 -1.2000000000e+02 1.2000000000e+02 0.0000000000e+00 0.0000e+00 1.0000e+00
       23  2    1    2    0    0 -5.6494880865e+01 -2.3730619231e-01 +1.1825543806e+01 1.0231986255e+02 8.4485400558e+01 0.0000e+00 0.0000e+00
       25  2    1    2    0    0 +5.6494880865e+01 +2.3730619231e-01 -1.1825543806e+01 1.3768013745e+02 1.2499699550e+02 0.0000e+00 0.0000e+00
      -13  1    3    3    0    0 -3.0305367286e+01 -3.5090123926e+01 -1.7741115503e+01 4.9643521861e+01 0.0000000000e+00 0.0000e+00 1.0000e+00
       13  1    3    3    0    0 -2.6189513579e+01 +3.4852817734e+01 +2.9566659309e+01 5.2676340687e+01 0.0000000000e+00 0.0000e+00 -1.0000e+00
        5  1    4    4  501    0 +1.3476651256e+00 +4.2192028549e+00 +4.9885363769e+00 8.1604760404e+00 4.7000000000e+00 0.0000e+00 1.0000e+00
       -5  1    4    4    0  501 +3.2770998671e+01 +5.3603014817e+01 -2.7845025228e+00 6.3063975499e+01 4.7000000000e+00 0.0000e+00 1.0000e+00
        5  1    4    4  502    0 +3.8336757199e+00 -2.8906662640e+00 -3.4573536084e+00 7.5562103563e+00 4.7000000000e+00 0.0000e+00 1.0000e+00
       -5  1    4    4    0  502 +1.8542541348e+01 -5.4694245216e+01 -1.0572224052e+01 5.8899475556e+01 4.7000000000e+00 0.0000e+00 -1.0000e+00
</event>
<event>
10      1 +4.6527485e-10 2.40000000e+02 7.81860800e-03 1.03012300e-01
      -11 -1    0    0    0    0 +0.0000000000e+00 +0.0000000000e+00 +1.2000000000e+02 1.2000000000e+02 0.0000000000e+00 0.0000e+00 1.0000e+00
       11 -1    0    0    0    0 -0.0000000000e+00 -0.0000000000e+00 -1.2000000000e+02 1.2000000000e+02 0.0000000000e+00 0.0000e+00 -1.0000e+00
       23  2    1    2    0    0 -4.7850953413e+01 +3.9952513928e+00 +3.6155757890e+00 1.0604471640e+02 9.4481393469e+01 0.0000e+00 0.0000e+00
       25  2    1    2    0    0 +4.7850953413e+01 -3.9952513928e+00 -3.6155757890e+00 1.3395528360e+02 1.2500107935e+02 0.0000e+00 0.0000e+00
      -13  1    3    3    0    0 -1.7839987684e+01 +4.5877347274e+01 -1.4683407696e+01 5.1367291296e+01 0.0000000000e+00 0.0000e+00 -1.0000e+00
       13  1    3    3    0    0 -3.0010965729e+01 -4.1882095882e+01 +1.8298983484e+01 5.4677425104e+01 0.0000000000e+00 0.0000e+00 1.0000e+00
        5  1    4    4  501    0 +6.6165792416e-01 -4.6565845465e-01 -4.5358009560e+00 6.5816501971e+00 4.7000000000e+00 0.0000e+00 1.0000e+00
       -5  1    4    4    0  502 +6.8053468085e+00 -5.8303040685e-01 +1.0792629980e+00 8.3610692054e+00 4.7000000000e+00 0.0000e+00 1.0000e+00
        5  1    4    4  502    0 +5.8687526592e+01 +4.0567014556e+01 +1.9638704433e+00 7.1525206987e+01 4.7000000000e+00 0.0000e+00 -1.0000e+00
       -5  1    4    4    0  501 -1.8303577911e+01 -4.3513577087e+01 -2.1229082742e+00 4.7487357210e+01 4.7000000000e+00 0.0000e+00 1.0000e+00
</event>
<event>
10      1 +4.6527485e-10 2.40000000e+02 7.81860800e-03 1.03012300e-01
      -11 -1    0    0    0    0 +0.0000000000e+00 +0.0000000000e+00 +1.2000000000e+02 1.2000000000e+02 0.0000000000e+00 0.0000e+00 -1.0000e+00
       11 -1    0    0    0    0 -0.0000000000e+00 -0.0000000000e+00 -1.2000000000e+02 1.2000000000e+02 0.0000000000e+00 0.0000e+00 1.0000e+00
       23  2    1    2    0    0 +2.3623779424e+01 +2.9365449978e+01 -1.8234452909e+01 1.0817664628e+02 9.9746072205e+01 0.0000e+00 0.0000e+00
       25  2    1    2    0    0 -2.3623779424e+01 -2.9365449978e+01 +1.8234452909e+01 1.3182335372e+02 1.2499795481e+02 0.0000e+00 0.0000e+00
      -13  1    3    3    0    0 +2.0187188249e+01 +2.9570634276e+01 +3.7783373484e+01 5.2053129519e+01 0.0000000000e+00 0.0000e+00 -1.0000e+00
       13  1    3    3    0    0 +3.4365911741e+00 -2.0518429736e-01 -5.6017826394e+01 5.6123516759e+01 0.0000000000e+00 0.0000e+00 1.0000e+00
        5  1    4    4  501    0 -9.6258289753e+00 -1.3768354544e+00 +1.0458128222e+01 1.5033785460e+01 4.7000000000e+00 0.0000e+00 -1.0000e+00
       -5  1    4    4    0  501 -3.4773733376e+00 -2.1530276326e+01 +5.6725015831e+01 6.0954592485e+01 4.7000000000e+00 0.0000e+00 -1.0000e+00
        5  1    4    4  502    0 -4.6913468312e+00 +8.0947778849e+00 -2.0290819067e+01 2.2832903944e+01 4.7000000000e+00 0.0000e+00 1.0000e+00
       -5  1    4    4    0  502 -5.8292302795e+00 -1.4553116083e+01 -2.8657872077e+01 3.3002071834e+01 4.7000000000e+00 0.0000e+00 1.0000e+00
</event>
<event>
10      1 +4.6527485e-10 2.40000000e+02 7.81860800e-03 1.03012300e-01
      -11 -1    0    0    0    0 +0.0000000000e+00 +0.0000000000e+00 +1.2000000000e+02 1.2000000000e+02 0.0000000000e+00 0.0000e+00 1.0000e+00
       11 -1    0    0    0    0 -0.0000000000e+00 -0.0000000000e+00 -1.2000000000e+02 1.2000000000e+02 0.0000000000e+00 0.0000e+00 -1.0000e+00
       23  2    1    2    0    0 +3.4409842238e+01 +3.1574150203e+01 -2.2115971096e+01 1.0474118052e+02 9.1107818080e+01 0.0000e+00 0.0000e+00
       25  2    1    2    0    0 -3.4409842238e+01 -3.1574150203e+01 +2.2115971096e+01 1.3525881948e+02 1.2499947146e+02 0.0000e+00 0.0000e+00
      -13  1    3    3    0    0 +5.8279275321e+01 +1.1644101499e+00 -2.9582678270e+01 6.5367917487e+01 0.0000000000e+00 0.0000e+00 -1.0000e+00
       13  1    3    3    0    0 -2.3869433083e+01 +3.0409740053e+01 +7.4667071746e+00 3.9373263033e+01 0.0000000000e+00 0.0000e+00 1.0000e+00
        5  1    4    4  501    0 +6.9459764450e+00 +9.7371214444e+00 +4.4142531969e+00 1.3588000371e+01 4.7000000000e+00 0.0000e+00 1.0000e+00
       -5  1    4    4    0  501 +2.1425666799e+01 +1.4275789552e+01 -1.0991424245e+01 2.8385890370e+01 4.7000000000e+00 0.0000e+00 1.0000e+00
        5  1    4    4  502    0 -1.7008713707e-01 -5.7261508766e+00 -1.5911507241e+00 7.5788847545e+00 4.7000000000e+00 0.0000e+00 1.0000e+00
       -5  1    4    4    0  502 -6.2611398345e+01 -4.9860910324e+01 +3.0284292868e+01 8.5706043985e+01 4.7000000000e+00 0.0000e+00 -1.0000e+00
</event>
<event>
10      1 +4.6527485e-10 2.40000000e+02 7.81860800e-03 1.03012300e-01
      -11 -1    0    0    0    0 +0.0000000000e+00 +0.0000000000e+00 +1.2000000000e+02 1.2000000000e+02 0.0000000000e+00 0.0000e+00 1.0000e+00
       11 -1    0    0    0    0 -0.0000000000e+00 -0.0000000000e+00 -1.2000000000e+02 1.2000000000e+02 0.0000000000e+00 0.0000e+00 -1.0000e+00
       23  2    1    2    0    0 +2.1638501394e+01 -3.9656947321e+01 +1.9025216089e+01 1.0572874263e+02 9.3678759375e+01 0.0000e+00 0.0000e+00
       25  2    1    2    0    0 -2.1638501394e+01 +3.9656947321e+01 -1.9025216089e+01 1.3427125737e+02 1.2500365392e+02 0.0000e+00 0.0000e+00
      -11  1    3    3    0    0 +1.5724747133e+01 -6.0393973607e+01 +4.1213625114e+01 7.4788118144e+01 0.0000000000e+00 0.0000e+00 1.0000e+00
       11  1    3    3    0    0 +5.9137542613e+00 +2.0737026286e+01 -2.2188409025e+01 3.0940624488e+01 0.0000000000e+00 0.0000e+00 -1.0000e+00
        5  1    4    4  501    0 -7.7649231301e+00 +4.6077096758e+01 -5.0306445904e+01 6.8820210522e+01 4.7000000000e+00 0.0000e+00 -1.0000e+00
       -5  1    4    4    0  501 -3.4848874857e+00 +5.9046078658e+00 -1.2370386382e+01 1.4903868427e+01 4.7000000000e+00 0.0000e+00 -1.0000e+00
        5  1    4    4  502    0 -3.4116664152e+00 -1.2161208494e+01 +3.8234552651e+01 4.0540171141e+01 4.7000000000e+00 0.0000e+00 1.0000e+00
       -5  1    4    4    0  502 -6.9770243628e+00 -1.6354880840e-01 +5.4170635473e+00 1.0007007277e+01 4.7000000000e+00 0.0000e+00 1.0000e+00
</event>
<event>
10      1 +4.6527485e-10 2.40000000e+02 7.81860800e-03 1.03012300e-01
      -11 -1    0    0    0    0 +0.0000000000e+00 +0.0000000000e+00 +1.2000000000e+02 1.2000000000e+02 0.0000000000e+00 0.0000e+00 1.0000e+00
       11 -1    0    0    0    0 -0.0000000000e+00 -0.0000000000e+00 -1.2000000000e+02 1.2000000000e+02 0.0000000000e+00 0.0000e+00 -1.0000e+00
       23  2    1    2    0    0 -4.6098370350e-01 +2.0508964997e-01 -5.0491552311e+01 1.0518638278e+02 9.2274176775e+01 0.0000e+00 0.0000e+00
       25  2    1    2    0    0 +4.6098370350e-01 -2.0508964997e-01 +5.0491552311e+01 1.3481361722e+02 1.2500023986e+02 0.0000e+00 0.0000e+00
      -11  1    3    3    0    0 +1.0664530683e+01 +2.3362855362e+00 -7.6260252087e+01 7.7037760177e+01 0.0000000000e+00 0.0000e+00 -1.0000e+00
       11  1    3    3    0    0 -1.1125514387e+01 -2.1311958862e+00 +2.5768699775e+01 2.8148622602e+01 0.0000000000e+00 0.0000e+00 1.0000e+00
        5  1    4    4  501    0 -2.9042199606e+01 -2.7804785388e+01 -4.3976823361e+00 4.0718362668e+01 4.7000000000e+00 0.0000e+00 -1.0000e+00
       -5  1    4    4    0  502 +3.2059036360e+01 +3.1095605181e+01 +3.1611006289e+01 5.4918705306e+01 4.7000000000e+00 0.0000e+00 1.0000e+00
        5  1    4    4  502    0 +4.5474682293e+00 +1.2084545959e+01 +9.5888856993e+00 1.6755669109e+01 4.7000000000e+00 0.0000e+00 1.0000e+00
       -5  1    4    4    0  501 -7.1033212796e+00 -1.5580455402e+01 +1.3689342659e+01 2.2420880138e+01 4.7000000000e+00 0.0000e+00 -1.0000e+00
</event>
<event>
10      1 +4.6527485e-10 2.40000000e+02 7.81860800e-03 1.03012300e-01
      -11 -1    0    0    0    0 +0.0000000000e+00 +0.0000000000e+00 +1.2000000000e+02 1.2000000000e+02 0.0000000000e+00 0.0000e+00 1.0000e+00
       11 -1    0    0    0    0 -0.0000000000e+00 -0.0000000000e+00 -1.2000000000e+02 1.2000000000e+02 0.0000000000e+00 0.0000e+00 -1.0000e+00
       23  2    1    2    0    0 +3.8113169692e+01 +3.2764826040e+00 -3.0122124326e+01 1.0585051844e+02 9.3987450422e+01 0.0000e+00 0.0000e+00
       25  2    1    2    0    0 -3.8113169692e+01 -3.2764826040e+00 +3.0122124326e+01 1.3414948156e+02 1.2500156794e+02 0.0000e+00 0.0000e+00
      -13  1    3    3    0    0 -1.6664763555e+01 -1.9295280657e+00 +2.3596199370e+01 2.8951995572e+01 0.0000000000e+00 0.0000e+00 1.0000e+00
       13  1    3    3    0    0 +5.4777933247e+01 +5.2060106697e+00 -5.3718323696e+01 7.6898522864e+01 0.0000000000e+00 0.0000e+00 -1.0000e+00
        5  1    4    4  501    0 +2.9248118981e+01 -2.0449350225e+01 +3.2755337700e+01 4.8668578533e+01 4.7000000000e+00 0.0000e+00 1.0000e+00
       -5  1    4    4    0  502 -4.2193693773e+01 +1.7787061943e+01 -1.5107605820e+01 4.8446022751e+01 4.7000000000e+00 0.0000e+00 1.0000e+00
        5  1    4    4  502    0 -2.5054970616e+01 +3.9475933119e+00 +3.6620957373e+00 2.6054481202e+01 4.7000000000e+00 0.0000e+00 1.0000e+00
       -5  1    4    4    0  501 -1.1262428450e-01 -4.5617876333e+00 +8.8122967087e+00 1.0980399079e+01 4.7000000000e+00 0.0000e+00 1.0000e+00
</event>
<event>
10      1 +4.6527485e-10 2.40000000e+02 7.81860800e-03 1.03012300e-01
      -11 -1    0    0    0    0 +0.0000000000e+00 +0.0000000000e+00 +1.2000000000e+02 1.2000000000e+02 0.0000000000e+00 0.0000e+00 -1.0000e+00
       11 -1    0    0    0    0 -0.0000000000e+00 -0.0000000000e+00 -1.2000000000e+02 1.2000000000e+02 0.0000000000e+00 0.0000e+00 1.0000e+00
       23  2    1    2    0    0 -2.2920713086e+01 -2.2373022556e+01 -3.6204057364e+01 1.0597737405e+02 9.4310968687e+01 0.0000e+00 0.0000e+00
       25  2    1    2    0    0 +2.2920713086e+01 +2.2373022556e+01 +3.6204057364e+01 1.3402262595e+02 1.2500167707e+02 0.0000e+00 0.0000e+00
      -13  1    3    3    0    0 -5.5331491564e+01 +6.9652431273e+00 -1.7749620412e+01 5.8524675098e+01 0.0000000000e+00 0.0000e+00 1.0000e+00
       13  1    3    3    0    0 +3.2410778478e+01 -2.9338265683e+01 -1.8454436953e+01 4.7452698955e+01 0.0000000000e+00 0.0000e+00 -1.0000e+00
        5  1    4    4  501    0 +3.7574815659e+00 +9.5611109745e+00 +7.1630959851e-01 1.1319744265e+01 4.7000000000e+00 0.0000e+00 1.0000e+00
       -5  1    4    4    0  502 -1.6205498847e+01 -2.0651532795e+01 -1.0411391153e+01 2.8628500929e+01 4.7000000000e+00 0.0000e+00 -1.0000e+00
        5  1    4    4  502    0 -2.8761929993e+00 -1.7162732559e+01 +6.1016118336e+00 1.9030279610e+01 4.7000000000e+00 0.0000e+00 -1.0000e+00
       -5  1    4    4    0  501 +3.8244923367e+01 +5.0626176935e+01 +3.9797527085e+01 7.5044101144e+01 4.7000000000e+00 0.0000e+00 -1.0000e+00
</event>
<event>
10      1 +4.6527485e-10 2.40000000e+02 7.81860800e-03 1.03012300e-01
      -11 -1    0    0    0    0 +0.0000000000e+00 +0.0000000000e+00 +1.2000000000e+02 1.2000000000e+02 0.0000000000e+00 0.0000e+00 -1.0000e+00
       11 -1    0    0    0    0 -0.0000000000e+00 -0.0000000000e+00 -1.2000000000e+02 1.2000000000e+02 0.0000000000e+00 0.0000e+00 1.0000e+00
       23  2    1    2    0    0 -4.8644667451e+01 +7.8700450870e+00 +1.8554881171e+01 1.0436271220e+02 9.0105775631e+01 0.0000e+00 0.0000e+00
       25  2    1    2    0    0 +4.8644667451e+01 -7.8700450870e+00 -1.8554881171e+01 1.3563728780e+02 1.2499979578e+02 0.0000e+00 0.0000e+00
      -11  1    3    3    0    0 +3.1851550938e-01 -1.4280348592e+01 -2.9176665791e+01 3.2485498838e+01 0.0000000000e+00 0.0000e+00 1.0000e+00
       11  1    3    3    0    0 -4.8963182961e+01 +2.2150393679e+01 +4.7731546963e+01 7.1877213366e+01 0.0000000000e+00 0.0000e+00 -1.0000e+00
        5  1    4    4  501    0 -6.3600801719e+00 +1.2001276477e+00 +3.2936985542e+00 8.6503974666e+00 4.7000000000e+00 0.0000e+00 1.0000e+00
       -5  1    4    4    0  502 +1.3370479043e+01 -7.3073246447e+00 -4.1288826144e+00 1.6471319769e+01 4.7000000000e+00 0.0000e+00 1.0000e+00
        5  1    4    4  502    0 +7.2003310395e+01 -3.0582696305e+00 +4.8217023314e+00 7.2382100925e+01 4.7000000000e+00 0.0000e+00 1.0000e+00
       -5  1    4    4    0  501 -3.0369041814e+01 +1.2954215406e+00 -2.2541399443e+01 3.8133469636e+01 4.7000000000e+00 0.0000e+00 1.0000e+00
</event>
<event>
10      1 +4.6527485e-10 2.40000000e+02 7.81860800e-03 1.03012300e-01
      -11 -1    0    0    0    0 +0.0000000000e+00 +0.0000000000e+00 +1.2000000000e+02 1.2000000000e+02 0.0000000000e+00 0.0000e+00 -1.0000e+00
       11 -1    0    0    0    0 -0.0000000000e+00 -0.0000000000e+00 -1.2000000000e+02 1.2000000000e+02 0.0000000000e+00 0.0000e+00 1.0000e+00
       23  2    1    2    0    0 +2.1510363517e+01 -3.7399720496e+01 -3.1162041772e+01 1.0414167705e+02 8.9515256906e+01 0.0000e+00 0.0000e+00
       25  2    1    2    0    0 -2.1510363517e+01 +3.7399720496e+01 +3.1162041772e+01 1.3585832295e+02 1.2499990495e+02 0.0000e+00 0.0000e+00
      -13  1    3    3    0    0 -2.7214816538e+01 +3.8792890842e+00 +8.7335389481e+00 2.8843887144e+01 0.0000000000e+00 0.0000e+00 -1.0000e+00
       13  1    3    3    0    0 +4.8725180055e+01 -4.1279009581e+01 -3.9895580720e+01 7.5297789903e+01 0.0000000000e+00 0.0000e+00 1.0000e+00
        5  1    4    4  501    0 -1.4792371471e+01 +1.3015315641e+01 +1.4565260600e+01 2.4948938080e+01 4.7000000000e+00 0.0000e+00 1.0000e+00
       -5  1    4    4    0  501 -3.0235407575e+01 -1.2524391383e+00 +4.8281556567e+01 5.7174707516e+01 4.7000000000e+00 0.0000e+00 1.0000e+00
        5  1    4    4  502    0 +5.5092206246e+00 +8.4094029983e+00 +2.2967125932e+00 1.1332892809e+01 4.7000000000e+00 0.0000e+00 -1.0000e+00
       -5  1    4    4    0  502 +1.8008194905e+01 +1.7227440995e+01 -3.3981487989e+01 4.2401784548e+01 4.7000000000e+00 0.0000e+00 -1.0000e+00
</event>
<event>
10      1 +4.6527485e-10 2.40000000e+02 7.81860800e-03 1.03012300e-01
      -11 -1    0    0    0    0 +0.0000000000e+00 +0.0000000000e+00 +1.2000000000e+02 1.2000000000e+02 0.0000000000e+00 0.0000e+00 1.0000e+00
       11 -1    0    0    0    0 -0.0000000000e+00 -0.0000000000e+00 -1.2000000000e+02 1.2000000000e+02 0.0000000000e+00 0.0000e+00 -1.0000e+00
       23  2    1    2    0    0 +8.3803403047e+00 -2.2888635351e+01 -4.3020691397e+01 1.0557569660e+02 9.3280909583e+01 0.0000e+00 0.0000e+00
       25  2    1    2    0    0 -8.3803403047e+00 +2.2888635351e+01 +4.3020691397e+01 1.3442430340e+02 1.2499997490e+02 0.0000e+00 0.0000e+00
      -13  1    3    3    0    0 -1.2674399249e+01 +1.1851991838e+01 +2.2542401434e+01 2.8447670717e+01 0.0000000000e+00 0.0000e+00 1.0000e+00
       13  1    3    3    0    0 +2.1054739554e+01 -3.4740627189e+01 -6.5563092831e+01 7.7128025884e+01 0.0000000000e+00 0.0000e+00 -1.0000e+00
        5  1    4    4  501    0 +5.1613736570e+00 -3.2032605251e+00 +4.6994512630e+00 9.0041933671e+00 4.7000000000e+00 0.0000e+00 -1.0000e+00
       -5  1    4    4    0  502 +5.0213335746e+00 +6.2574303427e-01 +6.7861426844e+01 6.8211938827e+01 4.7000000000e+00 0.0000e+00 -1.0000e+00
        5  1    4    4  502    0 -2.2480604262e+01 +2.4506860849e+01 -3.5317971071e+01 4.8738207571e+01 4.7000000000e+00 0.0000e+00 -1.0000e+00
       -5  1    4    4    0  501 +3.9175567253e+00 +9.5929199308e-01 +5.7777843615e+00 8.4699636334e+00 4.7000000000e+00 0.0000e+00 -1.0000e+00
</event>
<event>
10      1 +4.6527485e-10 2.40000000e+02 7.81860800e-03 1.03012300e-01
      -11 -1    0    0    0    0 +0.0000000000e+00 +0.0000000000e+00 +1.2000000000e+02 1.2000000000e+02 0.0000000000e+00 0.0000e+00 1.0000e+00
       11 -1    0    0    0    0 -0.0000000000e+00 -0.0000000000e+00 -1.2000000000e+02 1.2000000000e+02 0.0000000000e+00 0.0000e+00 -1.0000e+00
       23  2    1    2    0    0 +1.9824431965e-01 +5.1251592615e+01 -2.5218082818e-02 1.0490059386e+02 9.1527967905e+01 0.0000e+00 0.0000e+00
       25  2    1    2    0    0 -1.9824431965e-01 -5.1251592615e+01 +2.5218082818e-02 1.3509940614e+02 1.2500033543e+02 0.0000e+00 0.0000e+00
      -11  1    3    3    0    0 -3.3892073218e+00 +4.6602076416e+01 +4.1782836307e+01 6.2682100016e+01 0.0000000000e+00 0.0000e+00 1.0000e+00
       11  1    3    3    0    0 +3.5874516414e+00 +4.6495161988e+00 -4.1808054390e+01 4.2218493839e+01 0.0000000000e+00 0.0000e+00 -1.0000e+00
        5  1    4    4  501    0 -1.4938477315e+00 -6.3277578794e+01 +3.9393550958e-01 6.3470692010e+01 4.7000000000e+00 0.0000e+00 1.0000e+00
       -5  1    4    4    0  501 -2.0481129954e+00 -2.1293759921e+01 -1.0851553349e+01 2.4443101041e+01 4.7000000000e+00 0.0000e+00 1.0000e+00
        5  1    4    4  502    0 +1.0312183479e+01 -5.7909792326e-02 +4.7663650330e+00 1.2294418135e+01 4.7000000000e+00 0.0000e+00 -1.0000e+00
       -5  1    4    4    0  502 -6.9684670714e+00 +3.3377655893e+01 +5.7164708887e+00 3.4891194959e+01 4.7000000000e+00 0.0000e+00 -1.0000e+00
</event>
<event>
10      1 +4.6527485e-10 2.40000000e+02 7.81860800e-03 1.03012300e-01
      -11 -1    0    0    0    0 +0.0000000000e+00 +0.0000000000e+00 +1.2000000000e+02 1.2000000000e+02 0.0000000000e+00 0.0000e+00 1.0000e+00
       11 -1    0    0    0    0 -0.0000000000e+00 -0.0000000000e+00 -1.2000000000e+02 1.2000000000e+02 0.0000000000e+00 0.0000e+00 -1.0000e+00
       23  2    1    2    0    0 +4.2026910457e+00 +4.4504860816e+00 -1.3773466143e+01 1.1409284956e+02 1.1309288445e+02 0.0000e+00 0.0000e+00
       25  2    1    2    0    0 -4.2026910457e+00 -4.4504860816e+00 +1.3773466143e+01 1.2590715044e+02 1.2500173088e+02 0.0000e+00 0.0000e+00
      -13  1    3    3    0    0 +2.3998432790e+01 -2.5834085351e+01 +3.7412867093e+01 5.1410576406e+01 0.0000000000e+00 0.0000e+00 1.0000e+00
       13  1    3    3    0    0 -1.9795741744e+01 +3.0284571432e+01 -5.1186333236e+01 6.2682273158e+01 0.0000000000e+00 0.0000e+00 -1.0000e+00
        5  1    4    4  501    0 -1.3040422784e+01 -3.1075966022e+00 -3.7844342604e+00 1.4701079065e+01 4.7000000000e+00 0.0000e+00 1.0000e+00
       -5  1    4    4    0  501 -2.5753857229e+01 -1.2258135911e+01 -3.2781519857e+01 4.3706305064e+01 4.7000000000e+00 0.0000e+00 1.0000e+00
        5  1    4    4  502    0 +9.6764073894e+00 -4.2418700796e+00 +2.8520803579e+01 3.0775843750e+01 4.7000000000e+00 0.0000e+00 -1.0000e+00
       -5  1    4    4    0  502 +2.4915181578e+01 +1.5157116512e+01 +2.1818616682e+01 3.6723922556e+01 4.7000000000e+00 0.0000e+00 -1.0000e+00
</event>
<event>
10      1 +4.6527485e-10 2.40000000e+02 7.81860800e-03 1.03012300e-01
      -11 -1    0    0    0    0 +0.0000000000e+00 +0.0000000000e+00 +1.2000000000e+02 1.2000000000e+02 0.0000000000e+00 0.0000e+00 1.0000e+00
       11 -1    0    0    0    0 -0.0000000000e+00 -0.0000000000e+00 -1.2000000000e+02 1.2000000000e+02 0.0000000000e+00 0.0000e+00 -1.0000e+00
       23  2    1    2    0    0 +4.7069582332e+01 -1.2651698001e+01 +1.6581199007e+01 1.0481125973e+02 9.1295415885e+01 0.0000e+00 0.0000e+00
       25  2    1    2    0    0 -4.7069582332e+01 +1.2651698001e+01 -1.6581199007e+01 1.3518874027e+02 1.2500179316e+02 0.0000e+00 0.0000e+00
      -13  1    3    3    0    0 -6.8265683434e+00 +2.7424107829e+01 -1.3380200104e+01 3.1268410263e+01 0.0000000000e+00 0.0000e+00 -1.0000e+00
       13  1    3    3    0    0 +5.3896150676e+01 -4.0075805829e+01 +2.9961399111e+01 7.3542849463e+01 0.0000000000e+00 0.0000e+00 1.0000e+00
        5  1    4    4  501    0 -3.7553072279e+01 -2.0667636449e+01 -3.5044977874e+01 5.5566400892e+01 4.7000000000e+00 0.0000e+00 -1.0000e+00
       -5  1    4    4    0  501 -5.1779150990e+00 -1.1726405095e+01 +1.9712620146e+00 1.3794754625e+01 4.7000000000e+00 0.0000e+00 -1.0000e+00
        5  1    4    4  502    0 -2.4091056836e+01 +2.3918906499e+01 +1.1168652209e+01 3.6046107969e+01 4.7000000000e+00 0.0000e+00 1.0000e+00
       -5  1    4    4    0  502 +1.9752461881e+01 +2.1126833046e+01 +5.3238646436e+00 2.9781476788e+01 4.7000000000e+00 0.0000e+00 1.0000e+00
</event>
<event>
10      1 +4.6527485e-10 2.40000000e+02 7.81860800e-03 1.03012300e-01
      -11 -1    0    0    0    0 +0.0000000000e+00 +0.0000000000e+00 +1.2000000000e+02 1.2000000000e+02 0.0000000000e+00 0.0000e+00 1.0000e+00
       11 -1    0    0    0    0 -0.0000000000e+00 -0.0000000000e+00 -1.2000000000e+02 1.2000000000e+02 0.0000000000e+00 0.0000e+00 -1.0000e+00
       23  2    1    2    0    0 +5.1061673446e+01 +1.2176506391e+01 +4.2037279654e+00 1.0435849631e+02 9.0096962326e+01 0.0000e+00 0.0000e+00
       25  2    1    2    0    0 -5.1061673446e+01 -1.2176506391e+01 -4.2037279654e+00 1.3564150369e+02 1.2500153756e+02 0.0000e+00 0.0000e+00
      -11  1    3    3    0    0 -1.9312976319e+01 -6.9808930480e+00 +2.1150542642e+01 2.9479982633e+01 0.0000000000e+00 0.0000e+00 1.0000e+00
       11  1    3    3    0    0 +7.0374649765e+01 +1.9157399439e+01 -1.6946814676e+01 7.4878513677e+01 0.0000000000e+00 0.0000e+00 -1.0000e+00
        5  1    4    4  501    0 -1.1786724844e+01 -3.2279005156e+01 -4.4405890331e+01 5.6345666670e+01 4.7000000000e+00 0.0000e+00 1.0000e+00
       -5  1    4    4    0  502 -1.5234396520e+01 +7.7451588312e+00 +2.0021674916e+01 2.6740078330e+01 4.7000000000e+00 0.0000e+00 -1.0000e+00
        5  1    4    4  502    0 -2.1811754209e+01 +2.5801736551e+01 +1.4231090040e+01 3.6960738013e+01 4.7000000000e+00 0.0000e+00 -1.0000e+00
       -5  1    4    4    0  501 -2.2287978732e+00 -1.3444396617e+01 +5.9493974099e+00 1.5595020677e+01 4.7000000000e+00 0.0000e+00 1.0000e+00
</event>
<event>
10      1 +4.6527485e-10 2.40000000e+02 7.81860800e-03 1.03012300e-01
      -11 -1    0    0    0    0 +0.0000000000e+00 +0.0000000000e+00 +1.2000000000e+02 1.2000000000e+02 0.0000000000e+00 0.0000e+00 1.0000e+00
       11 -1    0    0    0    0 -0.0000000000e+00 -0.0000000000e+00 -1.2000000000e+02 1.2000000000e+02 0.0000000000e+00 0.0000e+00 -1.0000e+00
       23  2    1    2    0    0 -4.7708200222e+01 -1.5830685877e+01 +1.1248099465e+01 1.0480166599e+02 9.1269855201e+01 0.0000e+00 0.0000e+00
       25  2    1    2    0    0 +4.7708200222e+01 +1.5830685877e+01 -1.1248099465e+01 1.3519833401e+02 1.2500154717e+02 0.0000e+00 0.0000e+00
      -13  1    3    3    0    0 -4.1951822042e+01 -1.0307398427e+01 +4.9515615454e+01 6.5711445036e+01 0.0000000000e+00 0.0000e+00 1.0000e+00
       13  1    3    3    0    0 -5.7563781800e+00 -5.5232874497e+00 -3.8267515989e+01 3.9090220951e+01 0.0000000000e+00 0.0000e+00 -1.0000e+00
        5  1    4    4  501    0 +3.2083774318e-01 +2.7029718475e+00 -4.9362084317e+00 7.3392879319e+00 4.7000000000e+00 0.0000e+00 1.0000e+00
       -5  1    4    4    0  502 +6.2298182972e+01 +2.1698420441e+01 +9.0130621151e+00 6.6747362045e+01 4.7000000000e+00 0.0000e+00 1.0000e+00
        5  1    4    4  502    0 +1.5690888519e+01 +4.3276308470e-01 +1.0790353106e+01 1.9619199437e+01 4.7000000000e+00 0.0000e+00 1.0000e+00
       -5  1    4    4    0  501 -3.0601709013e+01 -9.0034694964e+00 -2.6115306254e+01 4.1492484599e+01 4.7000000000e+00 0.0000e+00 1.0000e+00
</event>
<event>
10      1 +4.6527485e-10 2.40000000e+02 7.81860800e-03 1.03012300e-01
      -11 -1    0    0    0    0 +0.0000000000e+00 +0.0000000000e+00 +1.2000000000e+02 1.2000000000e+02 0.0000000000e+00 0.0000e+00 1.0000e+00
       11 -1    0    0    0    0 -0.0000000000e+00 -0.0000000000e+00 -1.2000000000e+02 1.2000000000e+02 0.0000000000e+00 0.0000e+00 -1.0000e+00
       23  2    1    2    0    0 +5.2838761623e+01 -8.8222094377e+00 -4.1501659330e+01 9.7814706707e+01 7.0537670871e+01 0.0000e+00 0.0000e+00
       25  2    1    2    0    0 -5.2838761623e+01 +8.8222094377e+00 +4.1501659330e+01 1.4218529329e+02 1.2499801515e+02 0.0000e+00 0.0000e+00
      -11  1    3    3    0    0 +4.0014177965e+01 -3.6409783211e+01 -4.0133860784e+01 6.7361216832e+01 0.0000000000e+00 0.0000e+00 -1.0000e+00
       11  1    3    3    0    0 +1.2824583658e+01 +2.7587573774e+01 -1.3677985463e+00 3.0453489875e+01 0.0000000000e+00 0.0000e+00 1.0000e+00
        5  1    4    4  501    0 -4.3752231719e+00 +1.4716149479e+01 -2.5586347534e+00 1.6258666769e+01 4.7000000000e+00 0.0000e+00 -1.0000e+00
       -5  1    4    4    0  501 -2.8397683503e+01 +2.7321373324e+01 -2.2644636154e+01 4.5691962261e+01 4.7000000000e+00 0.0000e+00 -1.0000e+00
        5  1    4    4  502    0 -2.4604937742e+00 +1.2301086261e+00 +1.0705683173e+01 1.2011196820e+01 4.7000000000e+00 0.0000e+00 1.0000e+00
       -5  1    4    4    0  502 -1.7605361173e+01 -3.4445421992e+01 +5.5999247064e+01 6.8223467443e+01 4.7000000000e+00 0.0000e+00 1.0000e+00
</event>
<event>
10      1 +4.6527485e-10 2.40000000e+02 7.81860800e-03 1.03012300e-01
      -11 -1    0    0    0    0 +0.0000000000e+00 +0.0000000000e+00 +1.2000000000e+02 1.2000000000e+02 0.0000000000e+00 0.0000e+00 -1.0000e+00
       11 -1    0    0    0    0 -0.0000000000e+00 -0.0000000000e+00 -1.2000000000e+02 1.2000000000e+02 0.0000000000e+00 0.0000e+00 1.0000e+00
       23  2    1    2    0    0 +2.6600147470e+01 +3.4005335670e+00 -3.2171934339e+01 1.0814902455e+02 9.9709812350e+01 0.0000e+00 0.0000e+00
       25  2    1    2    0    0 -2.6600147470e+01 -3.4005335670e+00 +3.2171934339e+01 1.3185097545e+02 1.2502205763e+02 0.0000e+00 0.0000e+00
      -11  1    3    3    0    0 -4.2128163685e+00 -3.2701790128e+01 +1.9242060250e+01 3.8176062945e+01 0.0000000000e+00 0.0000e+00 -1.0000e+00
       11  1    3    3    0    0 +3.0812963838e+01 +3.6102323695e+01 -5.1413994590e+01 6.9972961609e+01 0.0000000000e+00 0.0000e+00 1.0000e+00
        5  1    4    4  501    0 -2.1771283208e+01 -2.9217435540e+01 +1.2299721476e+01 3.8743005310e+01 4.7000000000e+00 0.0000e+00 1.0000e+00
       -5  1    4    4    0  501 -1.7444712552e+01 -4.7609991759e+00 -2.9265896687e-01 1.8685843798e+01 4.7000000000e+00 0.0000e+00 1.0000e+00
        5  1    4    4  502    0 +2.6610224227e+01 -6.6552418456e+00 +2.0168128380e+01 3.4369167575e+01 4.7000000000e+00 0.0000e+00 1.0000e+00
       -5  1    4    4    0  502 -1.3994375938e+01 +3.7233142994e+01 -3.2565498050e-03 4.0052958764e+01 4.7000000000e+00 0.0000e+00 1.0000e+00
</event>
<event>
10      1 +4.6527485e-10 2.40000000e+02 7.81860800e-03 1.03012300e-01
      -11 -1    0    0    0    0 +0.0000000000e+00 +0.0000000000e+00 +1.2000000000e+02 1.2000000000e+02 0.0000000000e+00 0.0000e+00 -1.0000e+00
       11 -1    0    0    0    0 -0.0000000000e+00 -0.0000000000e+00 -1.2000000000e+02 1.2000000000e+02 0.0000000000e+00 0.0000e+00 1.0000e+00
       23  2    1    2    0    0 -4.6632642751e+01 +1.1490962952e+01 +1.7563951123e+01 1.0493961605e+02 9.1636155740e+01 0.0000e+00 0.0000e+00
       25  2    1    2    0    0 +4.6632642751e+01 -1.1490962952e+01 -1.7563951123e+01 1.3506038395e+02 1.2500467725e+02 0.0000e+00 0.0000e+00
      -13  1    3    3    0    0 +7.6033846611e+00 +1.0026485166e+01 -3.0160953849e+01 3.2680651771e+01 0.0000000000e+00 0.0000e+00 1.0000e+00
       13  1    3    3    0    0 -5.4236027412e+01 +1.4644777858e+00 +4.7724904972e+01 7.2258964283e+01 0.0000000000e+00 0.0000e+00 -1.0000e+00
        5  1    4    4  501    0 +8.2246680529e+00 +1.1937784855e+01 +4.5121893080e+00 1.5893574934e+01 4.7000000000e+00 0.0000e+00 -1.0000e+00
       -5  1    4    4    0  501 -7.2061267040e+00 +3.5321430531e+01 +7.3523751792e+00 3.7090148795e+01 4.7000000000e+00 0.0000e+00 -1.0000e+00
        5  1    4    4  502    0 +4.2305092804e+01 -5.4601706081e+01 -2.8717786605e+01 7.4952441265e+01 4.7000000000e+00 0.0000e+00 1.0000e+00
       -5  1    4    4    0  502 +3.3090085983e+00 -4.1484722565e+00 -7.1072900512e-01 7.1242189527e+00 4.7000000000e+00 0.0000e+00 -1.0000e+00
</event>
<event>
10      1 +4.6527485e-10 2.40000000e+02 7.81860800e-03 1.03012300e-01
      -11 -1    0    0    0    0 +0.0000000000e+00 +0.0000000000e+00 +1.2000000000e+02 1.2000000000e+02 0.0000000000e+00 0.0000e+00 1.0000e+00
       11 -1    0    0    0    0 -0.0000000000e+00 -0.0000000000e+00 -1.2000000000e+02 1.2000000000e+02 0.0000000000e+00 0.0000e+00 -1.0000e+00
       23  2    1    2    0    0 +1.0113780517e+01 +1.9484831963e+01 +4.8397943628e+01 1.0416995224e+02 8.9593921498e+01 0.0000e+00 0.0000e+00
       25  2    1    2    0    0 -1.0113780517e+01 -1.9484831963e+01 -4.8397943628e+01 1.3583004776e+02 1.2500197476e+02 0.0000e+00 0.0000e+00
      -13  1    3    3    0    0 -1.0600041959e+01 +1.2347383343e+01 -2.3737942857e+01 2.8780352604e+01 0.0000000000e+00 0.0000e+00 -1.0000e+00
       13  1    3    3    0    0 +2.0713822476e+01 +7.1374486201e+00 +7.2135886484e+01 7.5389599636e+01 0.0000000000e+00 0.0000e+00 1.0000e+00
        5  1    4    4  501    0 -3.3854745522e+01 -9.8836902145e+00 +2.2890193318e+01 4.2306997964e+01 4.7000000000e+00 0.0000e+00 1.0000e+00
       -5  1    4    4    0  501 -9.7777984083e+00 -2.6243397389e+00 +7.5654554630e-01 1.1187263380e+01 4.7000000000e+00 0.0000e+00 1.0000e+00
        5  1    4    4  502    0 +2.6143631162e+01 -1.2495070603e+01 -4.9863269066e+01 5.7862352541e+01 4.7000000000e+00 0.0000e+00 1.0000e+00
       -5  1    4    4    0  502 +7.3751322517e+00 +5.5182685933e+00 -2.2181413426e+01 2.4473433874e+01 4.7000000000e+00 0.0000e+00 1.0000e+00
</event>
<event>
10      1 +4.6527485e-10 2.40000000e+02 7.81860800e-03 1.03012300e-01
      -11 -1    0    0    0    0 +0.0000000000e+00 +0.0000000000e+00 +1.2000000000e+02 1.2000000000e+02 0.0000000000e+00 0.0000e+00 -1.0000e+00
       11 -1    0    0    0    0 -0.0000000000e+00 -0.0000000000e+00 -1.2000000000e+02 1.2000000000e+02 0.0000000000e+00 0.0000e+00 1.0000e+00
       23  2    1    2    0    0 +3.9887014384e+01 +3.0820919166e+01 -1.0139314846e+01 1.0483855435e+02 9.1364182243e+01 0.0000e+00 0.0000e+00
       25  2    1    2    0    0 -3.9887014384e+01 -3.0820919166e+01 +1.0139314846e+01 1.3516144565e+02 1.2499963084e+02 0.0000e+00 0.0000e+00
      -13  1    3    3    0    0 -9.7390691620e+00 +3.8609392895e+01 -3.0982510897e+01 5.0452459498e+01 0.0000000000e+00 0.0000e+00 1.0000e+00
       13  1    3    3    0    0 +4.9626083546e+01 -7.7884737293e+00 +2.0843196051e+01 5.4386094848e+01 0.0000000000e+00 0.0000e+00 -1.0000e+00
        5  1    4    4  501    0 -1.0119430057e+01 +9.4500678544e-01 +3.1575539355e+01 3.3502247508e+01 4.7000000000e+00 0.0000e+00 1.0000e+00
       -5  1    4    4    0  502 -1.8606789676e+01 +2.3124211818e+01 -1.7018847618e+01 3.4535097633e+01 4.7000000000e+00 0.0000e+00 -1.0000e+00
        5  1    4    4  502    0 -2.4834125912e+00 -2.6885534107e-01 -1.0010374716e+01 1.1337425777e+01 4.7000000000e+00 0.0000e+00 -1.0000e+00
       -5  1    4    4    0  501 -8.6773820597e+00 -5.4621282428e+01 +5.5929978249e+00 5.5786674737e+01 4.7000000000e+00 0.0000e+00 1.0000e+00
</event>
<event>
10      1 +4.6527485e-10 2.40000000e+02 7.81860800e-03 1.03012300e-01
      -11 -1    0    0    0    0 +0.0000000000e+00 +0.0000000000e+00 +1.2000000000e+02 1.2000000000e+02 0.0000000000e+00 0.0000e+00 1.0000e+00
       11 -1    0    0    0    0 -0.0000000000e+00 -0.0000000000e+00 -1.2000000000e+02 1.2000000000e+02 0.0000000000e+00 0.0000e+00 -1.0000e+00
       23  2    1    2    0    0 -2.8601298436e+01 -3.7706367483e+01 +1.9704516810e+01 1.0490279123e+02 9.1523347868e+01 0.0000e+00 0.0000e+00
       25  2    1    2    0    0 +2.8601298436e+01 +3.7706367483e+01 -1.9704516810e+01 1.3509720877e+02 1.2499273344e+02 0.0000e+00 0.0000e+00
      -11  1    3    3    0    0 +3.0247407167e+01 -2.9942126758e+01 +1.5859079078e+01 4.5419676180e+01 0.0000000000e+00 0.0000e+00 1.0000e+00
       11  1    3    3    0    0 -5.8848705603e+01 -7.7642407251e+00 +3.8454377325e+00 5.9483115054e+01 0.0000000000e+00 0.0000e+00 -1.0000e+00
        5  1    4    4  501    0 -1.9583611866e+00 +1.8439186608e+01 -2.0540666811e+01 2.8068626157e+01 4.7000000000e+00 0.0000e+00 -1.0000e+00
       -5  1    4    4    0  502 +2.4035528188e+01 +4.1336389282e+00 +4.6964600010e+00 2.5277268891e+01 4.7000000000e+00 0.0000e+00 -1.0000e+00
        5  1    4    4  502    0 +3.2516918704e+01 -1.1757703092e+01 +1.6841036040e+01 3.8746665391e+01 4.7000000000e+00 0.0000e+00 -1.0000e+00
       -5  1    4    4    0  501 -2.5992787270e+01 +2.6891245039e+01 -2.0701346040e+01 4.3004648327e+01 4.7000000000e+00 0.0000e+00 -1.0000e+00
</event>
<event>
10      1 +4.6527485e-10 2.40000000e+02 7.81860800e-03 1.03012300e-01
      -11 -1    0    0    0    0 +0.0000000000e+00 +0.0000000000e+00 +1.2000000000e+02 1.2000000000e+02 0.0000000000e+00 0.0000e+00 1.0000e+00
       11 -1    0    0    0    0 -0.0000000000e+00 -0.0000000000e+00 -1.2000000000e+02 1.2000000000e+02 0.0000000000e+00 0.0000e+00 -1.0000e+00
       23  2    1    2    0    0 -3.7348654514e+01 -2.0955171418e+01 +2.2924646727e+01 1.0588357666e+02 9.4083745549e+01 0.0000e+00 0.0000e+00
       25  2    1    2    0    0 +3.7348654514e+01 +2.0955171418e+01 -2.2924646727e+01 1.3411642334e+02 1.2501053707e+02 0.0000e+00 0.0000e+00
      -11  1    3    3    0    0 -3.8561628260e+01 -4.2201558059e+01 +4.6815118476e+01 7.3889282001e+01 0.0000000000e+00 0.0000e+00 1.0000e+00
       11  1    3    3    0    0 +1.2129737463e+00 +2.1246386641e+01 -2.3890471749e+01 3.1994294663e+01 0.0000000000e+00 0.0000e+00 -1.0000e+00
        5  1    4    4  501    0 +5.2921314067e+01 -1.1010075745e+01 +2.7362171728e+01 6.0767307758e+01 4.7000000000e+00 0.0000e+00 -1.0000e+00
       -5  1    4    4    0  501 -1.4015640854e+01 +3.0796660112e+01 -2.1922646299e+01 4.0590206742e+01 4.7000000000e+00 0.0000e+00 -1.0000e+00
        5  1    4    4  502    0 -6.9611285767e-02 -3.1829066014e+00 -2.4463351286e+01 2.5113368876e+01 4.7000000000e+00 0.0000e+00 -1.0000e+00
       -5  1    4    4    0  502 -1.4874074125e+00 +4.3514936525e+00 -3.9008208698e+00 7.6455399598e+00 4.7000000000e+00 0.0000e+00 -1.0000e+00
</event>
<event>
10      1 +4.6527485e-10 2.40000000e+02 7.81860800e-03 1.03012300e-01
      -11 -1    0    0    0    0 +0.0000000000e+00 +0.0000000000e+00 +1.2000000000e+02 1.2000000000e+02 0.0000000000e+00 0.0000e+00 1.0000e+00
       11 -1    0    0    0    0 -0.0000000000e+00 -0.0000000000e+00 -1.2000000000e+02 1.2000000000e+02 0.0000000000e+00 0.0000e+00 -1.0000e+00
       23  2    1    2    0    0 +5.4661160430e+00 +4.7361745950e+01 -2.1929543055e+01 1.0443108163e+02 9.0288053187e+01 0.0000e+00 0.0000e+00
       25  2    1    2    0    0 -5.4661160430e+00 -4.7361745950e+01 +2.1929543055e+01 1.3556891837e+02 1.2500005346e+02 0.0000e+00 0.0000e+00
      -11  1    3    3    0    0 -2.8354082079e+01 +3.8840387612e+00 -3.7515833223e+01 4.7185564213e+01 0.0000000000e+00 0.0000e+00 -1.0000e+00
       11  1    3    3    0    0 +3.3820198122e+01 +4.3477707189e+01 +1.5586290168e+01 5.7245517420e+01 0.0000000000e+00 0.0000e+00 1.0000e+00
        5  1    4    4  501    0 +2.3856736723e-01 +1.5743045887e+01 -8.9114742536e+00 1.8692372283e+01 4.7000000000e+00 0.0000e+00 1.0000e+00
       -5  1    4    4    0  502 -1.3185547403e+01 -3.1034723956e+01 +1.8569271191e+01 3.8780414953e+01 4.7000000000e+00 0.0000e+00 1.0000e+00
        5  1    4    4  502    0 -2.4525734206e+01 -3.6746841392e+01 +7.7166578442e+00 4.5094110468e+01 4.7000000000e+00 0.0000e+00 1.0000e+00
       -5  1    4    4    0  501 +3.2006598199e+01 +4.6767735106e+00 +4.5550882736e+00 3.3002020664e+01 4.7000000000e+00 0.0000e+00 1.0000e+00
</event>
<event>
10      1 +4.6527485e-10 2.40000000e+02 7.81860800e-03 1.03012300e-01
      -11 -1    0    0    0    0 +0.0000000000e+00 +0.0000000000e+00 +1.2000000000e+02 1.2000000000e+02 0.0000000000e+00 0.0000e+00 -1.0000e+00
       11 -1    0    0    0    0 -0.0000000000e+00 -0.0000000000e+00 -1.2000000000e+02 1.2000000000e+02 0.0000000000e+00 0.0000e+00 1.0000e+00
       23  2    1    2    0    0 +2.0434737173e+01 -3.2335587247e+01 +3.4852349171e+01 1.0471391912e+02 9.1033784547e+01 0.0000e+00 0.0000e+00
       25  2    1    2    0    0 -2.0434737173e+01 +3.2335587247e+01 -3.4852349171e+01 1.3528608088e+02 1.2499787499e+02 0.0000e+00 0.0000e+00
      -11  1    3    3    0    0 -8.1272536546e+00 +2.7437162331e+01 -2.3928125332e+00 2.8715425830e+01 0.0000000000e+00 0.0000e+00 1.0000e+00
       11  1    3    3    0    0 +2.8561990828e+01 -5.9772749578e+01 +3.7245161704e+01 7.5998493291e+01 0.0000000000e+00 0.0000e+00 -1.0000e+00
        5  1    4    4  501    0 -1.7420162021e+01 +1.1484053280e+01 -3.4195657597e+01 4.0333342572e+01 4.7000000000e+00 0.0000e+00 -1.0000e+00
       -5  1    4    4    0  501 -3.1926534250e+01 +1.4087606302e+01 -1.8673565835e+01 3.9856697073e+01 4.7000000000e+00 0.0000e+00 -1.0000e+00
        5  1    4    4  502    0 +3.8823420689e+01 -1.3481047050e-01 +1.3355029890e+01 4.1324605155e+01 4.7000000000e+00 0.0000e+00 -1.0000e+00
       -5  1    4    4    0  502 -9.9114615909e+00 +6.8987381354e+00 +4.6618443708e+00 1.3771436079e+01 4.7000000000e+00 0.0000e+00 -1.0000e+00
</event>
<event>
10      1 +4.6527485e-10 2.40000000e+02 7.81860800e-03 1.03012300e-01
      -11 -1    0    0    0    0 +0.0000000000e+00 +0.0000000000e+00 +1.2000000000e+02 1.2000000000e+02 0.0000000000e+00 0.0000e+00 -1.0000e+00
       11 -1    0    0    0    0 -0.0000000000e+00 -0.0000000000e+00 -1.2000000000e+02 1.2000000000e+02 0.0000000000e+00 0.0000e+00 1.0000e+00
       23  2    1    2    0    0 -6.3204298161e+00 -4.6470690637e+01 +2.0274875461e+01 1.0496157795e+02 9.1686364036e+01 0.0000e+00 0.0000e+00
       25  2    1    2    0    0 +6.3204298161e+00 +4.6470690637e+01 -2.0274875461e+01 1.3503842205e+02 1.2499932773e+02 0.0000e+00 0.0000e+00
      -13  1    3    3    0    0 -5.9110406303e+00 -7.6752591827e+00 -3.5624110125e+01 3.6917844291e+01 0.0000000000e+00 0.0000e+00 1.0000e+00
       13  1    3    3    0    0 -4.0938918581e-01 -3.8795431454e+01 +5.5898985586e+01 6.8043733663e+01 0.0000000000e+00 0.0000e+00 -1.0000e+00
        5  1    4    4  501    0 +2.6355743402e+00 +7.3622726263e+00 +1.5716399321e+01 1.8172631014e+01 4.7000000000e+00 0.0000e+00 1.0000e+00
       -5  1    4    4    0  502 +2.9405829962e+01 +4.4819463467e+01 -4.3867869861e+01 6.9425983230e+01 4.7000000000e+00 0.0000e+00 -1.0000e+00
        5  1    4    4  502    0 -4.2350081986e+00 +2.9377038278e+00 -1.3741454522e+01 1.5410482490e+01 4.7000000000e+00 0.0000e+00 -1.0000e+00
       -5  1    4    4    0  501 -2.1485966287e+01 -8.6487492841e+00 +2.1618049601e+01 3.2029325313e+01 4.7000000000e+00 0.0000e+00 1.0000e+00
</event>
<event>
10      1 +4.6527485e-10 2.40000000e+02 7.81860800e-03 1.03012300e-01
      -11 -1    0    0    0    0 +0.0000000000e+00 +0.0000000000e+00 +1.2000000000e+02 1.2000000000e+02 0.0000000000e+00 0.0000e+00 1.0000e+00
       11 -1    0    0    0    0 -0.0000000000e+00 -0.0000000000e+00 -1.2000000000e+02 1.2000000000e+02 0.0000000000e+00 0.0000e+00 -1.0000e+00
       23  2    1    2    0    0 +4.6374959832e+01 -2.0783700462e+01 -1.0110451232e+01 1.0469188862e+02 9.0970166619e+01 0.0000e+00 0.0000e+00
       25  2    1    2    0    0 -4.6374959832e+01 +2.0783700462e+01 +1.0110451232e+01 1.3530811138e+02 1.2499385856e+02 0.0000e+00 0.0000e+00
      -11  1    3    3    0    0 -2.1651484008e+01 +1.0906092936e+01 +1.1162401459e+01 2.6689489115e+01 0.0000000000e+00 0.0000e+00 1.0000e+00
       11  1    3    3    0    0 +6.8026443840e+01 -3.1689793398e+01 -2.1272852691e+01 7.8002399506e+01 0.0000000000e+00 0.0000e+00 -1.0000e+00
        5  1    4    4  501    0 +9.4253304161e+00 +1.3408704248e+01 -1.7175715741e+00 1.7136809947e+01 4.7000000000e+00 0.0000e+00 1.0000e+00
       -5  1    4    4    0  501 +2.9641838225e+01 +3.3191749214e+00 -2.3790234225e-02 3.0195133076e+01 4.7000000000e+00 0.0000e+00 1.0000e+00
        5  1    4    4  502    0 -7.5255237083e+01 +5.1608350499e+00 +1.2834452693e+01 7.6660277216e+01 4.7000000000e+00 0.0000e+00 -1.0000e+00
       -5  1    4    4    0  502 -1.0186891390e+01 -1.1050137568e+00 -9.8263965214e-01 1.1315891140e+01 4.7000000000e+00 0.0000e+00 1.0000e+00
</event>
<event>
10      1 +4.6527485e-10 2.40000000e+02 7.81860800e-03 1.03012300e-01
      -11 -1    0    0    0    0 +0.0000000000e+00 +0.0000000000e+00 +1.2000000000e+02 1.2000000000e+02 0.0000000000e+00 0.0000e+00 1.0000e+00
       11 -1    0    0    0    0 -0.0000000000e+00 -0.0000000000e+00 -1.2000000000e+02 1.2000000000e+02 0.0000000000e+00 0.0000e+00 -1.0000e+00
       23  2    1    2    0    0 +5.1638681454e+01 -1.4919078550e+00 +2.1053037653e+00 1.0471928204e+02 9.1065451820e+01 0.0000e+00 0.0000e+00
       25  2    1    2    0    0 -5.1638681454e+01 +1.4919078550e+00 -2.1053037653e+00 1.3528071796e+02 1.2501064410e+02 0.0000e+00 0.0000e+00
      -11  1    3    3    0    0 +5.3697786903e+01 -2.5745140459e+01 +3.0838872572e+01 6.7061916444e+01 0.0000000000e+00 0.0000e+00 1.0000e+00
       11  1    3    3    0    0 -2.0591054496e+00 +2.4253232604e+01 -2.8733568807e+01 3.7657365593e+01 0.0000000000e+00 0.0000e+00 -1.0000e+00
        5  1    4    4  501    0 +1.2907494040e+00 +9.1709066826e-01 +3.1500087382e-01 4.9695386977e+00 4.7000000000e+00 0.0000e+00 1.0000e+00
       -5  1    4    4    0  502 -9.0464560831e+00 +2.6411740521e+00 +7.9912696907e+00 1.3219854738e+01 4.7000000000e+00 0.0000e+00 1.0000e+00
        5  1    4    4  502    0 -5.6375520661e+01 -2.4659350819e+01 +3.0226770271e+01 6.8717032486e+01 4.7000000000e+00 0.0000e+00 1.0000e+00
       -5  1    4    4    0  501 +1.2492545887e+01 +2.2592993953e+01 -4.0638344601e+01 4.8374292041e+01 4.7000000000e+00 0.0000e+00 -1.0000e+00
</event>
<event>
10      1 +4.6527485e-10 2.40000000e+02 7.81860800e-03 1.03012300e-01
      -11 -1    0    0    0    0 +0.0000000000e+00 +0.0000000000e+00 +1.2000000000e+02 1.2000000000e+02 0.0000000000e+00 0.0000e+00 1.0000e+00
       11 -1    0    0    0    0 -0.0000000000e+00 -0.0000000000e+00 -1.2000000000e+02 1.2000000000e+02 0.0000000000e+00 0.0000e+00 -1.0000e+00
       23  2    1    2    0    0 -8.8486338825e-03 -4.1230307776e+01 +3.1441236709e+01 1.0467268858e+02 9.0927894575e+01 0.0000e+00 0.0000e+00
       25  2    1    2    0    0 +8.8486338825e-03 +4.1230307776e+01 -3.1441236709e+01 1.3532731142e+02 1.2499996597e+02 0.0000e+00 0.0000e+00
      -11  1    3    3    0    0 +3.3290985992e+01 -1.5400382138e+01 +4.7114139620e+01 5.9709326495e+01 0.0000000000e+00 0.0000e+00 1.0000e+00
       11  1    3    3    0    0 -3.3299834626e+01 -2.5829925638e+01 -1.5672902912e+01 4.4963362088e+01 0.0000000000e+00 0.0000e+00 -1.0000e+00
        5  1    4    4  501    0 +1.1243486071e+01 +6.8484970269e+01 -3.0474431474e+01 7.5943321664e+01 4.7000000000e+00 0.0000e+00 1.0000e+00
       -5  1    4    4    0  501 +7.0176649224e+00 +8.7303393938e+00 -7.9117869744e+00 1.4496648579e+01 4.7000000000e+00 0.0000e+00 -1.0000e+00
        5  1    4    4  502    0 -2.3739249339e+00 -1.2201686517e+01 +8.6506449552e+00 1.5856870170e+01 4.7000000000e+00 0.0000e+00 1.0000e+00
       -5  1    4    4    0  502 -1.5878377426e+01 -2.3783315370e+01 -1.7056632154e+00 2.9030471003e+01 4.7000000000e+00 0.0000e+00 1.0000e+00
</event>
<event>
10      1 +4.6527485e-10 2.40000000e+02 7.81860800e-03 1.03012300e-01
      -11 -1    0    0    0    0 +0.0000000000e+00 +0.0000000000e+00 +1.2000000000e+02 1.2000000000e+02 0.0000000000e+00 0.0000e+00 1.0000e+00
       11 -1    0    0    0    0 -0.0000000000e+00 -0.0000000000e+00 -1.2000000000e+02 1.2000000000e+02 0.0000000000e+00 0.0000e+00 -1.0000e+00
       23  2    1    2    0    0 +1.8193761628e+01 +1.6452738567e+01 +4.7556321185e+01 1.0402671433e+02 8.9209013224e+01 0.0000e+00 0.0000e+00
       25  2    1    2    0    0 -1.8193761628e+01 -1.6452738567e+01 -4.7556321185e+01 1.3597328567e+02 1.2500170064e+02 0.0000e+00 0.0000e+00
      -13  1    3    3    0    0 +2.7901744265e+01 +2.9113142680e+01 -1.2237799848e+01 4.2140789680e+01 0.0000000000e+00 0.0000e+00 -1.0000e+00
       13  1    3    3    0    0 -9.7079826372e+00 -1.2660404113e+01 +5.9794121033e+01 6.1885924646e+01 0.0000000000e+00 0.0000e+00 1.0000e+00
        5  1    4    4  501    0 +2.6656521150e+00 +1.0896685697e+00 -1.4161624108e+01 1.5196535006e+01 4.7000000000e+00 0.0000e+00 -1.0000e+00
       -5  1    4    4    0  502 +8.8058476518e+00 -2.0900816395e+01 -5.9594535470e+00 2.3916357696e+01 4.7000000000e+00 0.0000e+00 -1.0000e+00
        5  1    4    4  502    0 +9.8976781318e+00 -2.9238037448e+01 -3.2581346453e+01 4.5127164800e+01 4.7000000000e+00 0.0000e+00 -1.0000e+00
       -5  1    4    4    0  501 -3.9562939526e+01 +3.2596446707e+01 +5.1461029232e+00 5.1733228173e+01 4.7000000000e+00 0.0000e+00 -1.0000e+00
</event>
<event>
10      1 +4.6527485e-10 2.40000000e+02 7.81860800e-03 1.03012300e-01
      -11 -1    0    0    0    0 +0.0000000000e+00 +0.0000000000e+00 +1.2000000000e+02 1.2000000000e+02 0.0000000000e+00 0.0000e+00 1.0000e+00
       11 -1    0    0    0    0 -0.0000000000e+00 -0.0000000000e+00 -1.2000000000e+02 1.2000000000e+02 0.0000000000e+00 0.0000e+00 -1.0000e+00
       23  2    1    2    0    0 -1.7205157990e+01 +3.8804336448e+01 -1.7083175514e+01 1.0688841310e+02 9.6599710044e+01 0.0000e+00 0.0000e+00
       25  2    1    2    0    0 +1.7205157990e+01 -3.8804336448e+01 +1.7083175514e+01 1.3311158690e+02 1.2500026277e+02 0.0000e+00 0.0000e+00
      -13  1    3    3    0    0 -4.1571267772e+01 +5.3536440170e+01 -3.1761703809e+01 7.4854035022e+01 0.0000000000e+00 0.0000e+00 -1.0000e+00
       13  1    3    3    0    0 +2.4366109782e+01 -1.4732103721e+01 +1.4678528295e+01 3.2034378078e+01 0.0000000000e+00 0.0000e+00 1.0000e+00
        5  1    4    4  501    0 -1.5090963293e+01 -5.0203870135e-01 -9.4700610153e+00 1.8432614345e+01 4.7000000000e+00 0.0000e+00 -1.0000e+00
       -5  1    4    4    0  501 -2.7903236524e+01 +9.6128891358e+00 -2.0981477688e+00 2.9958145304e+01 4.7000000000e+00 0.0000e+00 -1.0000e+00
        5  1    4    4  502    0 +7.5613116308e+00 -1.0023359955e+01 -5.9302491030e-01 1.3419495404e+01 4.7000000000e+00 0.0000e+00 -1.0000e+00
       -5  1    4    4    0  502 +5.2638046176e+01 -3.7891826928e+01 +2.9244409208e+01 7.1301331847e+01 4.7000000000e+00 0.0000e+00 -1.0000e+00
</event>
<event>
10      1 +4.6527485e-10 2.40000000e+02 7.81860800e-03 1.03012300e-01
      -11 -1    0    0    0    0 +0.0000000000e+00 +0.0000000000e+00 +1.2000000000e+02 1.2000000000e+02 0.0000000000e+00 0.0000e+00 1.0000e+00
       11 -1    0    0    0    0 -0.0000000000e+00 -0.0000000000e+00 -1.2000000000e+02 1.2000000000e+02 0.0000000000e+00 0.0000e+00 -1.0000e+00
       23  2    1    2    0    0 +2.9557059581e+01 -3.3113822558e+01 +2.7351609070e+01 1.0455303123e+02 9.0626049265e+01 0.0000e+00 0.0000e+00
       25  2    1    2    0    0 -2.9557059581e+01 +3.3113822558e+01 -2.7351609070e+01 1.3544696877e+02 1.2501050282e+02 0.0000e+00 0.0000e+00
      -13  1    3    3    0    0 +3.0054380326e+00 -1.5411914330e+01 +5.8132344867e+01 6.0215689656e+01 0.0000000000e+00 0.0000e+00 1.0000e+00
       13  1    3    3    0    0 +2.6551621548e+01 -1.7701908228e+01 -3.0780735797e+01 4.4337341575e+01 0.0000000000e+00 0.0000e+00 -1.0000e+00
        5  1    4    4  501    0 -8.8674998226e+00 +1.9728982992e+01 -1.1393325442e+01 2.4895043435e+01 4.7000000000e+00 0.0000e+00 -1.0000e+00
       -5  1    4    4    0  501 -2.9186705078e+01 -1.6366789596e+01 -1.3372708193e+01 3.6340815613e+01 4.7000000000e+00 0.0000e+00 -1.0000e+00
        5  1    4    4  502    0 +1.2386939717e+01 +4.8930434065e+01 +8.2413498428e+00 5.1357896185e+01 4.7000000000e+00 0.0000e+00 -1.0000e+00
       -5  1    4    4    0  502 -3.8897943974e+00 -1.9178804903e+01 -1.0826925278e+01 2.2853213536e+01 4.7000000000e+00 0.0000e+00 -1.0000e+00
</event>
<event>
10      1 +4.6527485e-10 2.40000000e+02 7.81860800e-03 1.03012300e-01
      -11 -1    0    0    0    0 +0.0000000000e+00 +0.0000000000e+00 +1.2000000000e+02 1.2000000000e+02 0.0000000000e+00 0.0000e+00 -1.0000e+00
       11 -1    0    0    0    0 -0.0000000000e+00 -0.0000000000e+00 -1.2000000000e+02 1.2000000000e+02 0.0000000000e+00 0.0000e+00 1.0000e+00
       23  2    1    2    0    0 -8.4761448071e+00 +5.0256708401e+01 +9.7584416083e+00 1.0465837696e+02 9.0887660964e+01 0.0000e+00 0.0000e+00
       25  2    1    2    0    0 +8.4761448071e+00 -5.0256708401e+01 -9.7584416083e+00 1.3534162304e+02 1.2499818388e+02 0.0000e+00 0.0000e+00
      -11  1    3    3    0    0 +2.3763812041e+01 +4.3456558548e+01 -2.6079007839e+01 5.5975940309e+01 0.0000000000e+00 0.0000e+00 1.0000e+00
       11  1    3    3    0    0 -3.2239956848e+01 +6.8001498530e+00 +3.5837449448e+01 4.8682436653e+01 0.0000000000e+00 0.0000e+00 -1.0000e+00
        5  1    4    4  501    0 +1.2727096460e+01 -1.3483923046e+01 +2.1468026577e+00 1.9248218792e+01 4.7000000000e+00 0.0000e+00 -1.0000e+00
       -5  1    4    4    0  501 +1.2846023057e+01 -6.1284371470e+01 -3.2051138541e+01 7.0499361534e+01 4.7000000000e+00 0.0000e+00 -1.0000e+00
        5  1    4    4  502    0 -1.5378992184e+01 +4.9194481603e-01 +1.0602092947e+01 1.9267843293e+01 4.7000000000e+00 0.0000e+00 1.0000e+00
       -5  1    4    4    0  502 -1.7179825255e+00 +2.4019641299e+01 +9.5438013285e+00 2.6326199420e+01 4.7000000000e+00 0.0000e+00 1.0000e+00
</event>
<event>
10      1 +4.6527485e-10 2.40000000e+02 7.81860800e-03 1.03012300e-01
      -11 -1    0    0    0    0 +0.0000000000e+00 +0.0000000000e+00 +1.2000000000e+02 1.2000000000e+02 0.0000000000e+00 0.0000e+00 -1.0000e+00
       11 -1    0    0    0    0 -0.0000000000e+00 -0.0000000000e+00 -1.2000000000e+02 1.2000000000e+02 0.0000000000e+00 0.0000e+00 1.0000e+00
       23  2    1    2    0    0 +3.4309310186e+01 -3.9163885868e+01 -1.1676779227e+01 1.0409576308e+02 8.9379203376e+01 0.0000e+00 0.0000e+00
       25  2    1    2    0    0 -3.4309310186e+01 +3.9163885868e+01 +1.1676779227e+01 1.3590423692e+02 1.2499070253e+02 0.0000e+00 0.0000e+00
      -13  1    3    3    0    0 +5.4044543762e+01 -3.8109602283e+01 -3.3935913150e+01 7.4329003074e+01 0.0000000000e+00 0.0000e+00 1.0000e+00
       13  1    3    3    0    0 -1.9735233577e+01 -1.0542835851e+00 +2.2259133922e+01 2.9766760005e+01 0.0000000000e+00 0.0000e+00 -1.0000e+00
        5  1    4    4  501    0 -2.2326214873e+01 +4.2228101689e+01 +5.3614191279e+01 7.1960016324e+01 4.7000000000e+00 0.0000e+00 -1.0000e+00
       -5  1    4    4    0  501 +4.5595251532e-01 +8.9960148107e-01 +2.7824423806e+00 5.5542021139e+00 4.7000000000e+00 0.0000e+00 1.0000e+00
        5  1    4    4  502    0 +8.9202391777e+00 -3.1264966639e+00 -3.0536874175e+01 3.2310003602e+01 4.7000000000e+00 0.0000e+00 -1.0000e+00
       -5  1    4    4    0  502 -2.1359287006e+01 -8.3732063826e-01 -1.4182980257e+01 2.6080014882e+01 4.7000000000e+00 0.0000e+00 -1.0000e+00
</event>
<event>
10      1 +4.6527485e-10 2.40000000e+02 7.81860800e-03 1.03012300e-01
      -11 -1    0    0    0    0 +0.0000000000e+00 +0.0000000000e+00 +1.2000000000e+02 1.2000000000e+02 0.0000000000e+00 0.0000e+00 1.0000e+00
       11 -1    0    0    0    0 -0.0000000000e+00 -0.0000000000e+00 -1.2000000000e+02 1.2000000000e+02 0.0000000000e+00 0.0000e+00 -1.0000e+00
       23  2    1    2    0    0 -4.4652101873e+01 -1.6903974042e+01 -1.6825203030e+00 1.0618185346e+02 9.4827214391e+01 0.0000e+00 0.0000e+00
       25  2    1    2    0    0 +4.4652101873e+01 +1.6903974042e+01 +1.6825203030e+00 1.3381814654e+02 1.2499964372e+02 0.0000e+00 0.0000e+00
      -13  1    3    3    0    0 -3.5825506979e+00 -7.8945746417e+00 +4.3562193219e+01 4.4416479558e+01 0.0000000000e+00 0.0000e+00 1.0000e+00
       13  1    3    3    0    0 -4.1069551175e+01 -9.0093994003e+00 -4.5244713522e+01 6.1765373900e+01 0.0000000000e+00 0.0000e+00 -1.0000e+00
        5  1    4    4  501    0 +4.9691840371e+01 +2.1746203537e+01 -7.7316276434e+00 5.4991312348e+01 4.7000000000e+00 0.0000e+00 1.0000e+00
       -5  1    4    4    0  502 -1.6824743337e+01 +5.8116056869e+00 +2.1504393317e+01 2.8308579635e+01 4.7000000000e+00 0.0000e+00 -1.0000e+00
        5  1    4    4  502    0 -1.6003520518e+01 -1.2318413175e+01 -3.6734479263e+00 2.1058019654e+01 4.7000000000e+00 0.0000e+00 -1.0000e+00
       -5  1    4    4    0  501 +2.7788525357e+01 +1.6645779928e+00 -8.4167974441e+00 2.9460234905e+01 4.7000000000e+00 0.0000e+00 1.0000e+00
</event>
<event>
10      1 +4.6527485e-10 2.40000000e+02 7.81860800e-03 1.03012300e-01
      -11 -1    0    0    0    0 +0.0000000000e+00 +0.0000000000e+00 +1.2000000000e+02 1.2000000000e+02 0.0000000000e+00 0.0000e+00 -1.0000e+00
       11 -1    0    0    0    0 -0.0000000000e+00 -0.0000000000e+00 -1.2000000000e+02 1.2000000000e+02 0.0000000000e+00 0.0000e+00 1.0000e+00
       23  2    1    2    0    0 -1.8019251959e+00 -5.1750055683e+01 +1.1734897840e+01 1.0420829698e+02 8.9667977198e+01 0.0000e+00 0.0000e+00
       25  2    1    2    0    0 +1.8019251959e+00 +5.1750055683e+01 -1.1734897840e+01 1.3579170302e+02 1.2498145296e+02 0.0000e+00 0.0000e+00
      -11  1    3    3    0    0 -2.0836458168e+01 -7.2357103391e+01 +5.6945993853e+00 7.5512494743e+01 0.0000000000e+00 0.0000e+00 1.0000e+00
       11  1    3    3    0    0 +1.9034532972e+01 +2.0607047708e+01 +6.0402984545e+00 2.8695802239e+01 0.0000000000e+00 0.0000e+00 -1.0000e+00
        5  1    4    4  501    0 -2.5667163310e+01 +5.8714827867e+00 -1.7300738591e+01 3.1854091391e+01 4.7000000000e+00 0.0000e+00 1.0000e+00
       -5  1    4    4    0  502 +4.1060173578e+01 +5.4649028871e+00 +1.4871772040e+01 4.4261299365e+01 4.7000000000e+00 0.0000e+00 1.0000e+00
        5  1    4    4  502    0 +1.2406677420e+01 +1.3963036230e+01 +4.5768799367e+00 1.9797218373e+01 4.7000000000e+00 0.0000e+00 1.0000e+00
       -5  1    4    4    0  501 -2.5997762492e+01 +2.6450633779e+01 -1.3882811226e+01 3.9879093890e+01 4.7000000000e+00 0.0000e+00 1.0000e+00
</event>
<event>
10      1 +4.6527485e-10 2.40000000e+02 7.81860800e-03 1.03012300e-01
      -11 -1    0    0    0    0 +0.0000000000e+00 +0.0000000000e+00 +1.2000000000e+02 1.2000000000e+02 0.0000000000e+00 0.0000e+00 -1.0000e+00
       11 -1    0    0    0    0 -0.0000000000e+00 -0.0000000000e+00 -1.2000000000e+02 1.2000000000e+02 0.0000000000e+00 0.0000e+00 1.0000e+00
       23  2    1    2    0    0 +4.2337506953e-02 +4.7717899462e+01 +1.7924423511e+01 1.0501036012e+02 9.1808992221e+01 0.0000e+00 0.0000e+00
       25  2    1    2    0    0 -4.2337506953e-02 -4.7717899462e+01 -1.7924423511e+01 1.3498963988e+02 1.2499567271e+02 0.0000e+00 0.0000e+00
      -11  1    3    3    0    0 -1.4510387204e+01 +1.6270207260e+01 +5.2016086951e+01 5.6399860663e+01 0.0000000000e+00 0.0000e+00 -1.0000e+00
       11  1    3    3    0    0 +1.4552724711e+01 +3.1447692202e+01 -3.4091663439e+01 4.8610499457e+01 0.0000000000e+00 0.0000e+00 1.0000e+00
        5  1    4    4  501    0 +7.0278498227e+00 +3.2710939030e+00 -1.7257022305e+01 1.9493217981e+01 4.7000000000e+00 0.0000e+00 -1.0000e+00
       -5  1    4    4    0  501 +2.9831537063e+01 +1.3483763478e+01 -1.3429754052e+01 3.5695668855e+01 4.7000000000e+00 0.0000e+00 -1.0000e+00
        5  1    4    4  502    0 -5.6979826917e+00 -1.2339679549e+01 +1.2199365363e+01 1.8858664147e+01 4.7000000000e+00 0.0000e+00 -1.0000e+00
       -5  1    4    4    0  502 -3.1203741701e+01 -5.2133077294e+01 +5.6298748215e-01 6.0942088897e+01 4.7000000000e+00 0.0000e+00 -1.0000e+00
</event>
<event>
10      1 +4.6527485e-10 2.40000000e+02 7.81860800e-03 1.03012300e-01
      -11 -1    0    0    0    0 +0.0000000000e+00 +0.0000000000e+00 +1.2000000000e+02 1.2000000000e+02 0.0000000000e+00 0.0000e+00 -1.0000e+00
       11 -1    0    0    0    0 -0.0000000000e+00 -0.0000000000e+00 -1.2000000000e+02 1.2000000000e+02 0.0000000000e+00 0.0000e+00 1.0000e+00
       23  2    1    2    0    0 -4.1341969694e+01 +1.8212174788e+01 -2.5303260671e+01 1.0469376916e+02 9.0992793840e+01 0.0000e+00 0.0000e+00
       25  2    1    2    0    0 +4.1341969694e+01 -1.8212174788e+01 +2.5303260671e+01 1.3530623084e+02 1.2500671716e+02 0.0000e+00 0.0000e+00
      -11  1    3    3    0    0 +1.0889832797e+01 +6.5203293024e+00 +2.7014177727e+01 2.9847427877e+01 0.0000000000e+00 0.0000e+00 -1.0000e+00
       11  1    3    3    0    0 -5.2231802491e+01 +1.1691845486e+01 -5.2317438399e+01 7.4846341279e+01 0.0000000000e+00 0.0000e+00 1.0000e+00
        5  1    4    4  501    0 -2.4595351688e+01 -1.3379464493e+01 +3.1493966200e+00 2.8564840169e+01 4.7000000000e+00 0.0000e+00 -1.0000e+00
       -5  1    4    4    0  501 -5.0198422117e+00 -1.9678397095e+01 -3.6330350055e+00 2.1159562174e+01 4.7000000000e+00 0.0000e+00 -1.0000e+00
        5  1    4    4  502    0 +5.6003361810e+01 +8.5137648824e-01 +5.6704487404e+00 5.6491993813e+01 4.7000000000e+00 0.0000e+00 1.0000e+00
       -5  1    4    4    0  502 +1.4953801783e+01 +1.3994310312e+01 +2.0116450316e+01 2.9089834688e+01 4.7000000000e+00 0.0000e+00 1.0000e+00
</event>
<event>
10      1 +4.6527485e-10 2.40000000e+02 7.81860800e-03 1.03012300e-01
      -11 -1    0    0    0    0 +0.0000000000e+00 +0.0000000000e+00 +1.2000000000e+02 1.2000000000e+02 0.0000000000e+00 0.0000e+00 1.0000e+00
       11 -1    0    0    0    0 -0.0000000000e+00 -0.0000000000e+00 -1.2000000000e+02 1.2000000000e+02 0.0000000000e+00 0.0000e+00 -1.0000e+00
       23  2    1    2    0    0 -2.0167167744e+01 +1.5087650085e+01 +4.5471958494e+01 1.0462001389e+02 9.0792601339e+01 0.0000e+00 0.0000e+00
       25  2    1    2    0    0 +2.0167167744e+01 -1.5087650085e+01 -4.5471958494e+01 1.3537998611e+02 1.2500275913e+02 0.0000e+00 0.0000e+00
      -11  1    3    3    0    0 +2.9843025618e+01 +2.8515897438e+01 +1.2089991165e+01 4.3010818071e+01 0.0000000000e+00 0.0000e+00 -1.0000e+00
       11  1    3    3    0    0 -5.0010193363e+01 -1.3428247353e+01 +3.3381967329e+01 6.1609195822e+01 0.0000000000e+00 0.0000e+00 1.0000e+00
        5  1    4    4  501    0 +5.9192761654e+00 +7.5286035485e+00 -1.3827905026e+00 1.0757314316e+01 4.7000000000e+00 0.0000e+00 1.0000e+00
       -5  1    4    4    0  501 +4.0256483503e+01 -1.7951645734e+01 +2.2838171848e+01 4.9864999168e+01 4.7000000000e+00 0.0000e+00 1.0000e+00
        5  1    4    4  502    0 -1.8953874418e+01 -8.7122476471e+00 -5.7928642921e+01 6.1749253317e+01 4.7000000000e+00 0.0000e+00 1.0000e+00
       -5  1    4    4    0  502 -7.0547175067e+00 +4.0476397479e+00 -8.9986969188e+00 1.3008419307e+01 4.7000000000e+00 0.0000e+00 -1.0000e+00
</event>
<event>
10      1 +4.6527485e-10 2.40000000e+02 7.81860800e-03 1.03012300e-01
      -11 -1    0    0    0    0 +0.0000000000e+00 +0.0000000000e+00 +1.2000000000e+02 1.2000000000e+02 0.0000000000e+00 0.0000e+00 1.0000e+00
       11 -1    0    0    0    0 -0.0000000000e+00 -0.0000000000e+00 -1.2000000000e+02 1.2000000000e+02 0.0000000000e+00 0.0000e+00 -1.0000e+00
       23  2    1    2    0    0 -1.4649561581e+01 +2.7953477459e+01 -4.7671745632e+00 1.1098811037e+02 1.0629970900e+02 0.0000e+00 0.0000e+00
       25  2    1    2    0    0 +1.4649561581e+01 -2.7953477459e+01 +4.7671745632e+00 1.2901188963e+02 1.2500134062e+02 0.0000e+00 0.0000e+00
      -13  1    3    3    0    0 +2.9767176518e+01 +5.0206918919e+00 +3.5643465602e+01 4.6709193795e+01 0.0000000000e+00 0.0000e+00 1.0000e+00
       13  1    3    3    0    0 -4.4416738099e+01 +2.2932785567e+01 -4.0410640165e+01 6.4278916573e+01 0.0000000000e+00 0.0000e+00 -1.0000e+00
        5  1    4    4  501    0 +9.3430542494e+00 +8.8207471280e+00 -2.2953752557e+01 2.6721957246e+01 4.7000000000e+00 0.0000e+00 -1.0000e+00
       -5  1    4    4    0  502 -3.2917943269e+00 -2.8758910055e+01 +2.4310507006e+01 3.8092014496e+01 4.7000000000e+00 0.0000e+00 1.0000e+00
        5  1    4    4  502    0 -1.8772257058e+01 -1.6950756708e+01 +1.8177808649e+01 3.1499976434e+01 4.7000000000e+00 0.0000e+00 1.0000e+00
       -5  1    4    4    0  501 +2.7370558717e+01 +8.9354421762e+00 -1.4767388535e+01 3.2697941457e+01 4.7000000000e+00 0.0000e+00 -1.0000e+00
</event>
<event>
10      1 +4.6527485e-10 2.40000000e+02 7.81860800e-03 1.03012300e-01
      -11 -1    0    0    0    0 +0.0000000000e+00 +0.0000000000e+00 +1.2000000000e+02 1.2000000000e+02 0.0000000000e+00 0.0000e+00 -1.0000e+00
       11 -1    0    0    0    0 -0.0000000000e+00 -0.0000000000e+00 -1.2000000000e+02 1.2000000000e+02 0.0000000000e+00 0.0000e+00 1.0000e+00
       23  2    1    2    0    0 -3.7152788949e+01 +2.7845244411e+01 -2.5461280495e+01 1.0424948228e+02 8.9799723763e+01 0.0000e+00 0.0000e+00
       25  2    1    2    0    0 +3.7152788949e+01 -2.7845244411e+01 +2.5461280495e+01 1.3575051772e+02 1.2499695554e+02 0.0000e+00 0.0000e+00
      -11  1    3    3    0    0 +2.2220183939e+01 +3.1427349850e+01 +2.4056718950e+00 3.8564260010e+01 0.0000000000e+00 0.0000e+00 -1.0000e+00
       11  1    3    3    0    0 -5.9372972888e+01 -3.5821054390e+00 -2.7866952390e+01 6.5685222268e+01 0.0000000000e+00 0.0000e+00 1.0000e+00
        5  1    4    4  501    0 +1.9700954652e+01 +1.2835800671e+01 +5.6908362781e+01 6.1753843180e+01 4.7000000000e+00 0.0000e+00 1.0000e+00
       -5  1    4    4    0  502 +4.0000860757e+00 -1.4335971752e+01 -2.2092020749e+01 2.7049365158e+01 4.7000000000e+00 0.0000e+00 -1.0000e+00
        5  1    4    4  502    0 -7.2810252068e-02 -3.0636623700e+01 -5.1525102198e+00 3.1420476995e+01 4.7000000000e+00 0.0000e+00 -1.0000e+00
       -5  1    4    4    0  501 +1.3524558473e+01 +4.2915503694e+00 -4.2025513170e+00 1.5526832389e+01 4.7000000000e+00 0.0000e+00 1.0000e+00
</event>
<event>
10      1 +4.6527485e-10 2.40000000e+02 7.81860800e-03 1.03012300e-01
      -11 -1    0    0    0    0 +0.0000000000e+00 +0.0000000000e+00 +1.2000000000e+02 1.2000000000e+02 0.0000000000e+00 0.0000e+00 1.0000e+00
       11 -1    0    0    0    0 -0.0000000000e+00 -0.0000000000e+00 -1.2000000000e+02 1.2000000000e+02 0.0000000000e+00 0.0000e+00 -1.0000e+00
       23  2    1    2    0    0 +4.8227024711e+01 +8.2571739272e+00 -1.9311666437e+00 1.0575366100e+02 9.3734095060e+01 0.0000e+00 0.0000e+00
       25  2    1    2    0    0 -4.8227024711e+01 -8.2571739272e+00 +1.9311666437e+00 1.3424633900e+02 1.2499729316e+02 0.0000e+00 0.0000e+00
      -11  1    3    3    0    0 +6.9280096451e+01 +2.5693222947e+01 -1.5089160616e+01 7.5415888497e+01 0.0000000000e+00 0.0000e+00 -1.0000e+00
       11  1    3    3    0    0 -2.1053071740e+01 -1.7436049019e+01 +1.3157993972e+01 3.0337772504e+01 0.0000000000e+00 0.0000e+00 1.0000e+00
        5  1    4    4  501    0 +1.0318916570e+01 +3.3785416535e+01 +2.1483514268e+01 4.1612087125e+01 4.7000000000e+00 0.0000e+00 1.0000e+00
       -5  1    4    4    0  501 +6.1526590257e+00 +2.8419401400e+00 -3.7462061322e+00 9.0584710206e+00 4.7000000000e+00 0.0000e+00 1.0000e+00
        5  1    4    4  502    0 -8.2351712934e+00 -1.2404971194e+01 -8.7218910636e+00 1.7884706883e+01 4.7000000000e+00 0.0000e+00 -1.0000e+00
       -5  1    4    4    0  502 -5.6463429013e+01 -3.2479559408e+01 -7.0842504282e+00 6.5691073971e+01 4.7000000000e+00 0.0000e+00 -1.0000e+00
</event>
<event>
10      1 +4.6527485e-10 2.40000000e+02 7.81860800e-03 1.03012300e-01
      -11 -1    0    0    0    0 +0.0000000000e+00 +0.0000000000e+00 +1.2000000000e+02 1.2000000000e+02 0.0000000000e+00 0.0000e+00 1.0000e+00
       11 -1    0    0    0    0 -0.0000000000e+00 -0.0000000000e+00 -1.2000000000e+02 1.2000000000e+02 0.0000000000e+00 0.0000e+00 -1.0000e+00
       23  2    1    2    0    0 -5.2918056163e+00 -4.6036082809e+01 +2.2387451235e+01 1.0482141257e+02 9.1318160474e+01 0.0000e+00 0.0000e+00
       25  2    1    2    0    0 +5.2918056163e+00 +4.6036082809e+01 -2.2387451235e+01 1.3517858743e+02 1.2499891360e+02 0.0000e+00 0.0000e+00
      -11  1    3    3    0    0 -1.8958409737e+01 +2.3264019933e+01 +1.5703957365e+01 3.3871082063e+01 0.0000000000e+00 0.0000e+00 1.0000e+00
       11  1    3    3    0    0 +1.3666604121e+01 -6.9300102742e+01 +6.6834938707e+00 7.0950330503e+01 0.0000000000e+00 0.0000e+00 -1.0000e+00
        5  1    4    4  501    0 +4.6657275580e+01 +5.1040999164e+01 -3.7750871712e+01 7.8925935377e+01 4.7000000000e+00 0.0000e+00 -1.0000e+00
       -5  1    4    4    0  502 -1.0348064275e+01 +7.0459553103e-01 -4.2270979662e+00 1.2146491111e+01 4.7000000000e+00 0.0000e+00 1.0000e+00
        5  1    4    4  502    0 -3.2385433349e+01 -4.8574943843e+00 +2.0686111931e+01 3.9018159512e+01 4.7000000000e+00 0.0000e+00 1.0000e+00
       -5  1    4    4    0  501 +1.3680276601e+00 -8.5201750155e-01 -1.0955934883e+00 5.0880014341e+00 4.7000000000e+00 0.0000e+00 1.0000e+00
</event>
<event>
10      1 +4.6527485e-10 2.40000000e+02 7.81860800e-03 1.03012300e-01
      -11 -1    0    0    0    0 +0.0000000000e+00 +0.0000000000e+00 +1.2000000000e+02 1.2000000000e+02 0.0000000000e+00 0.0000e+00 -1.0000e+00
       11 -1    0    0    0    0 -0.0000000000e+00 -0.0000000000e+00 -1.2000000000e+02 1.2000000000e+02 0.0000000000e+00 0.0000e+00 1.0000e+00
       23  2    1    2    0    0 +4.5332342159e+01 +2.1089118537e+01 -2.2509687789e+01 1.0350120317e+02 8.7784058048e+01 0.0000e+00 0.0000e+00
       25  2    1    2    0    0 -4.5332342159e+01 -2.1089118537e+01 +2.2509687789e+01 1.3649879683e+02 1.2500185329e+02 0.0000e+00 0.0000e+00
      -11  1    3    3    0    0 +1.3971764939e+01 +3.1472826851e+01 +2.7154662637e+01 4.3853446255e+01 0.0000000000e+00 0.0000e+00 -1.0000e+00
       11  1    3    3    0    0 +3.1360577221e+01 -1.0383708314e+01 -4.9664350426e+01 5.9647756917e+01 0.0000000000e+00 0.0000e+00 1.0000e+00
        5  1    4    4  501    0 -3.3316448171e+00 +3.0741336427e+00 -4.2390976928e+00 7.7852491347e+00 4.7000000000e+00 0.0000e+00 1.0000e+00
       -5  1    4    4    0  502 -2.2362728331e-02 -1.0977419709e+01 +1.0855824140e+01 1.6138251495e+01 4.7000000000e+00 0.0000e+00 1.0000e+00
        5  1    4    4  502    0 +9.0752679572e+00 +5.3959988694e-01 +4.8975958159e+01 5.0033849883e+01 4.7000000000e+00 0.0000e+00 1.0000e+00
       -5  1    4    4    0  501 -5.1053602571e+01 -1.3725432358e+01 -3.3082996816e+01 6.2541446316e+01 4.7000000000e+00 0.0000e+00 1.0000e+00
</event>
<event>
10      1 +4.6527485e-10 2.40000000e+02 7.81860800e-03 1.03012300e-01
      -11 -1    0    0    0    0 +0.0000000000e+00 +0.0000000000e+00 +1.2000000000e+02 1.2000000000e+02 0.0000000000e+00 0.0000e+00 1.0000e+00
       11 -1    0    0    0    0 -0.0000000000e+00 -0.0000000000e+00 -1.2000000000e+02 1.2000000000e+02 0.0000000000e+00 0.0000e+00 -1.0000e+00
       23  2    1    2    0    0 +4.0071267590e+01 -4.5095468267e-01 -4.3745281215e+01 1.0163582938e+02 8.2524434800e+01 0.0000e+00 0.0000e+00
       25  2    1    2    0    0 -4.0071267590e+01 +4.5095468267e-01 +4.3745281215e+01 1.3836417062e+02 1.2500033694e+02 0.0000e+00 0.0000e+00
      -13  1    3    3    0    0 -8.4175428617e+00 -1.5876449089e+01 -4.7329880775e+01 5.0626418772e+01 0.0000000000e+00 0.0000e+00 -1.0000e+00
       13  1    3    3    0    0 +4.8488810452e+01 +1.5425494406e+01 +3.5845995603e+00 5.1009410610e+01 0.0000000000e+00 0.0000e+00 1.0000e+00
        5  1    4    4  501    0 -9.2062972994e+00 -1.8276699895e+01 -3.4334911191e+00 2.1276102328e+01 4.7000000000e+00 0.0000e+00 -1.0000e+00
       -5  1    4    4    0  501 +4.3954591377e+00 -3.3514767197e+01 +2.6627687943e+00 3.4230688263e+01 4.7000000000e+00 0.0000e+00 -1.0000e+00
        5  1    4    4  502    0 -4.9851072434e+00 +3.0717834678e+01 +2.7227184081e+01 4.1615456437e+01 4.7000000000e+00 0.0000e+00 1.0000e+00
       -5  1    4    4    0  502 -3.0275322185e+01 +2.1524587097e+01 +1.7288819458e+01 4.1241923590e+01 4.7000000000e+00 0.0000e+00 1.0000e+00
</event>
<event>
10      1 +4.6527485e-10 2.40000000e+02 7.81860800e-03 1.03012300e-01
      -11 -1    0    0    0    0 +0.0000000000e+00 +0.0000000000e+00 +1.2000000000e+02 1.2000000000e+02 0.0000000000e+00 0.0000e+00 -1.0000e+00
       11 -1    0    0    0    0 -0.0000000000e+00 -0.0000000000e+00 -1.2000000000e+02 1.2000000000e+02 0.0000000000e+00 0.0000e+00 1.0000e+00
       23  2    1    2    0    0 -3.0705927814e+01 +1.9196146062e+00 -2.1897528269e+01 1.0942094449e+02 1.0269811306e+02 0.0000e+00 0.0000e+00
       25  2    1    2    0    0 +3.0705927814e+01 -1.9196146062e+00 +2.1897528269e+01 1.3057905551e+02 1.2499939628e+02 0.0000e+00 0.0000e+00
      -11  1    3    3    0    0 -6.2129650726e+01 -2.3602834248e+01 -1.7310350845e+01 6.8679221969e+01 0.0000000000e+00 0.0000e+00 1.0000e+00
       11  1    3    3    0    0 +3.1423722912e+01 +2.5522448854e+01 -4.5871774237e+00 4.0741722520e+01 0.0000000000e+00 0.0000e+00 -1.0000e+00
        5  1    4    4  501    0 -4.6143247716e+00 -4.5796089989e+00 +6.9766572723e+00 1.0631489001e+01 4.7000000000e+00 0.0000e+00 1.0000e+00
       -5  1    4    4    0  501 -3.2704113432e+01 -2.5146679955e+01 +1.4086729803e+00 4.1545022658e+01 4.7000000000e+00 0.0000e+00 1.0000e+00
        5  1    4    4  502    0 +3.5710458483e+01 +7.2624744476e+00 +1.5254806686e+01 3.9784161512e+01 4.7000000000e+00 0.0000e+00 -1.0000e+00
       -5  1    4    4    0  502 +3.2313907534e+01 +2.0544199900e+01 -1.7426086699e+00 3.8618382341e+01 4.7000000000e+00 0.0000e+00 -1.0000e+00
</event>
<event>
10      1 +4.6527485e-10 2.40000000e+02 7.81860800e-03 1.03012300e-01
      -11 -1    0    0    0    0 +0.0000000000e+00 +0.0000000000e+00 +1.2000000000e+02 1.2000000000e+02 0.0000000000e+00 0.0000e+00 -1.0000e+00
       11 -1    0    0    0    0 -0.0000000000e+00 -0.0000000000e+00 -1.2000000000e+02 1.2000000000e+02 0.0000000000e+00 0.0000e+00 1.0000e+00
       23  2    1    2    0    0 -4.9895282794e+01 +1.1324790116e+01 +6.2879776036e-01 1.0493203749e+02 9.1610845362e+01 0.0000e+00 0.0000e+00
       25  2    1    2    0    0 +4.9895282794e+01 -1.1324790116e+01 -6.2879776036e-01 1.3506796251e+02 1.2500067598e+02 0.0000e+00 0.0000e+00
      -13  1    3    3    0    0 -2.0272219956e+01 -1.5082235002e+01 -4.0527873883e+01 4.7759242834e+01 0.0000000000e+00 0.0000e+00 1.0000e+00
       13  1    3    3    0    0 -2.9623062837e+01 +2.6407025118e+01 +4.1156671643e+01 5.7172794651e+01 0.0000000000e+00 0.0000e+00 -1.0000e+00
        5  1    4    4  501    0 +2.5123387445e+01 +7.3652115813e+00 +1.0335581980e+01 2.8536734102e+01 4.7000000000e+00 0.0000e+00 1.0000e+00
       -5  1    4    4    0  501 +5.8267520261e+01 +3.2260105973e+00 -2.2229670210e-01 5.8546139732e+01 4.7000000000e+00 0.0000e+00 1.0000e+00
        5  1    4    4  502    0 -2.5308727078e+01 -3.4338617804e+00 -4.9313330559e+00 2.6433522632e+01 4.7000000000e+00 0.0000e+00 -1.0000e+00
       -5  1    4    4    0  502 -8.1868978340e+00 -1.8482150514e+01 -5.8107499821e+00 2.1551566048e+01 4.7000000000e+00 0.0000e+00 -1.0000e+00
</event>
<event>
10      1 +4.6527485e-10 2.40000000e+02 7.81860800e-03 1.03012300e-01
      -11 -1    0    0    0    0 +0.0000000000e+00 +0.0000000000e+00 +1.2000000000e+02 1.2000000000e+02 0.0000000000e+00 0.0000e+00 -1.0000e+00
       11 -1    0    0    0    0 -0.0000000000e+00 -0.0000000000e+00 -1.2000000000e+02 1.2000000000e+02 0.0000000000e+00 0.0000e+00 1.0000e+00
       23  2    1    2    0    0 +4.1154097542e+01 +1.1801303992e+01 +2.6415858769e+01 1.0525738098e+02 9.2457493667e+01 0.0000e+00 0.0000e+00
       25  2    1    2    0    0 -4.1154097542e+01 -1.1801303992e+01 -2.6415858769e+01 1.3474261902e+02 1.2499938106e+02 0.0000e+00 0.0000e+00
      -11  1    3    3    0    0 +7.8085734267e+00 +3.7554601606e+01 -1.9424621040e+01 4.2995788437e+01 0.0000000000e+00 0.0000e+00 1.0000e+00
       11  1    3    3    0    0 +3.3345524115e+01 -2.5753297614e+01 +4.5840479809e+01 6.2261592540e+01 0.0000000000e+00 0.0000e+00 -1.0000e+00
        5  1    4    4  501    0 -9.2096114783e+00 -2.1526649464e+01 -4.9986474777e+00 2.4398566707e+01 4.7000000000e+00 0.0000e+00 1.0000e+00
       -5  1    4    4    0  502 -3.4367439505e+01 +4.8371460836e+01 -2.3080090339e+01 6.3841206846e+01 4.7000000000e+00 0.0000e+00 1.0000e+00
        5  1    4    4  502    0 -1.0791967398e+00 +1.7992285203e+00 -1.8848690237e+00 5.4812973015e+00 4.7000000000e+00 0.0000e+00 -1.0000e+00
       -5  1    4    4    0  501 +3.5021501809e+00 -4.0445343884e+01 +3.5477480714e+00 4.1021548169e+01 4.7000000000e+00 0.0000e+00 1.0000e+00
</event>
<event>
10      1 +4.6527485e-10 2.40000000e+02 7.81860800e-03 1.03012300e-01
      -11 -1    0    0    0    0 +0.0000000000e+00 +0.0000000000e+00 +1.2000000000e+02 1.2000000000e+02 0.0000000000e+00 0.0000e+00 1.0000e+00
       11 -1    0    0    0    0 -0.0000000000e+00 -0.0000000000e+00 -1.2000000000e+02 1.2000000000e+02 0.0000000000e+00 0.0000e+00 -1.0000e+00
       23  2    1    2    0    0 -7.6075400969e+00 +4.7744988135e+01 -1.8214999299e+01 1.0474413770e+02 9.1115803374e+01 0.0000e+00 0.0000e+00
       25  2    1    2    0    0 +7.6075400969e+00 -4.7744988135e+01 +1.8214999299e+01 1.3525586230e+02 1.2499961412e+02 0.0000e+00 0.0000e+00
      -11  1    3    3    0    0 +2.8394072722e+01 -7.0584014036e+00 -2.5446390945e+01 3.8775806997e+01 0.0000000000e+00 0.0000e+00 -1.0000e+00
       11  1    3    3    0    0 -3.6001612819e+01 +5.4803389538e+01 +7.2313916453e+00 6.5968330702e+01 0.0000000000e+00 0.0000e+00 1.0000e+00
        5  1    4    4  501    0 -7.7048342421e+00 -3.4022560835e+01 -1.4320183632e+01 3.8000747042e+01 4.7000000000e+00 0.0000e+00 -1.0000e+00
       -5  1    4    4    0  502 +4.0555685694e+00 +2.5745206066e+01 +3.6215407431e+01 4.4865454497e+01 4.7000000000e+00 0.0000e+00 -1.0000e+00
        5  1    4    4  502    0 -9.3602458102e-01 +4.3840352571e+00 -1.5649368830e-01 6.4969529339e+00 4.7000000000e+00 0.0000e+00 -1.0000e+00
       -5  1    4    4    0  501 +1.2192830351e+01 -4.3851668623e+01 -3.5237308116e+00 4.5892707828e+01 4.7000000000e+00 0.0000e+00 -1.0000e+00
</event>
<event>
10      1 +4.6527485e-10 2.40000000e+02 7.81860800e-03 1.03012300e-01
      -11 -1    0    0    0    0 +0.0000000000e+00 +0.0000000000e+00 +1.2000000000e+02 1.2000000000e+02 0.0000000000e+00 0.0000e+00 -1.0000e+00
       11 -1    0    0    0    0 -0.0000000000e+00 -0.0000000000e+00 -1.2000000000e+02 1.2000000000e+02 0.0000000000e+00 0.0000e+00 1.0000e+00
       23  2    1    2    0    0 +4.4898887813e+01 +7.6971402536e+00 +2.5222467608e+01 1.0462728598e+02 9.0749876059e+01 0.0000e+00 0.0000e+00
       25  2    1    2    0    0 -4.4898887813e+01 -7.6971402536e+00 -2.5222467608e+01 1.3537271402e+02 1.2495776380e+02 0.0000e+00 0.0000e+00
      -13  1    3    3    0    0 -4.8516297335e+00 +3.0910566141e+01 -1.6778490373e+01 3.5503790635e+01 0.0000000000e+00 0.0000e+00 1.0000e+00
       13  1    3    3    0    0 +4.9750517546e+01 -2.3213425888e+01 +4.2000957981e+01 6.9123495347e+01 0.0000000000e+00 0.0000e+00 -1.0000e+00
        5  1    4    4  501    0 -4.1699449077e+01 -4.2538385925e+01 +1.7025645947e+01 6.2131481154e+01 4.7000000000e+00 0.0000e+00 1.0000e+00
       -5  1    4    4    0  501 +6.7064304634e-04 -5.6249422640e+00 -3.6765151796e+00 8.2004109525e+00 4.7000000000e+00 0.0000e+00 -1.0000e+00
        5  1    4    4  502    0 -1.3145247344e+01 +1.8456626737e+01 -5.4408188969e+00 2.3772612572e+01 4.7000000000e+00 0.0000e+00 -1.0000e+00
       -5  1    4    4    0  502 +9.9451379645e+00 +2.2009561198e+01 -3.3130779478e+01 4.1268209340e+01 4.7000000000e+00 0.0000e+00 1.0000e+00
</event>
<event>
10      1 +4.6527485e-10 2.40000000e+02 7.81860800e-03 1.03012300e-01
      -11 -1    0    0    0    0 +0.0000000000e+00 +0.0000000000e+00 +1.2000000000e+02 1.2000000000e+02 0.0000000000e+00 0.0000e+00 -1.0000e+00
       11 -1    0    0    0    0 -0.0000000000e+00 -0.0000000000e+00 -1.2000000000e+02 1.2000000000e+02 0.0000000000e+00 0.0000e+00 1.0000e+00
       23  2    1    2    0    0 +2.4533399917e+01 +8.3359058169e+00 -3.6739611221e+01 1.0716046052e+02 9.7273790040e+01 0.0000e+00 0.0000e+00
       25  2    1    2    0    0 -2.4533399917e+01 -8.3359058169e+00 +3.6739611221e+01 1.3283953948e+02 1.2500067672e+02 0.0000e+00 0.0000e+00
      -13  1    3    3    0    0 +3.1689983891e+01 +1.6917259671e+01 +2.5418341986e+01 4.4006145742e+01 0.0000000000e+00 0.0000e+00 -1.0000e+00
       13  1    3    3    0    0 -7.1565839738e+00 -8.5813538543e+00 -6.2157953207e+01 6.3154314777e+01 0.0000000000e+00 0.0000e+00 1.0000e+00
        5  1    4    4  501    0 -4.0040436577e+00 +5.4254174737e+00 -9.3990823318e-01 8.2729044394e+00 4.7000000000e+00 0.0000e+00 1.0000e+00
       -5  1    4    4    0  501 -2.8724511585e+01 +1.8722607125e+01 -1.9707883366e+01 3.9826175439e+01 4.7000000000e+00 0.0000e+00 -1.0000e+00
        5  1    4    4  502    0 -9.0455000804e+00 -3.0401516590e+01 +5.8504190278e+01 6.6715092466e+01 4.7000000000e+00 0.0000e+00 1.0000e+00
       -5  1    4    4    0  502 +1.7240655406e+01 -2.0824138258e+00 -1.1167874579e+00 1.8025367136e+01 4.7000000000e+00 0.0000e+00 1.0000e+00
</event>
<event>
10      1 +4.6527485e-10 2.40000000e+02 7.81860800e-03 1.03012300e-01
      -11 -1    0    0    0    0 +0.0000000000e+00 +0.0000000000e+00 +1.2000000000e+02 1.2000000000e+02 0.0000000000e+00 0.0000e+00 1.0000e+00
       11 -1    0    0    0    0 -0.0000000000e+00 -0.0000000000e+00 -1.2000000000e+02 1.2000000000e+02 0.0000000000e+00 0.0000e+00 -1.0000e+00
       23  2    1    2    0    0 +2.3250089797e+01 +1.0933945563e+01 -4.5249410464e+01 1.0460032709e+02 9.0739194608e+01 0.0000e+00 0.0000e+00
       25  2    1    2    0    0 -2.3250089797e+01 -1.0933945563e+01 +4.5249410464e+01 1.3539967291e+02 1.2500177773e+02 0.0000e+00 0.0000e+00
      -13  1    3    3    0    0 +2.5356920307e+01 +4.2827123165e+01 -5.1948755434e+01 7.1943096105e+01 0.0000000000e+00 0.0000e+00 -1.0000e+00
       13  1    3    3    0    0 -2.1068305106e+00 -3.1893177602e+01 +6.6993449702e+00 3.2657230981e+01 0.0000000000e+00 0.0000e+00 1.0000e+00
        5  1    4    4  501    0 -4.9952210967e+00 -2.9887222927e+00 +9.3896224706e+00 1.2005819626e+01 4.7000000000e+00 0.0000e+00 -1.0000e+00
       -5  1    4    4    0  502 -1.6728023173e+01 +1.5261938694e+01 -4.4072673710e+00 2.3542887199e+01 4.7000000000e+00 0.0000e+00 1.0000e+00
        5  1    4    4  502    0 -3.7844963877e+01 +1.0378044779e+01 +7.2232739475e+00 4.0177242200e+01 4.7000000000e+00 0.0000e+00 1.0000e+00
       -5  1    4    4    0  501 +3.6318118351e+01 -3.3585206742e+01 +3.3043781417e+01 5.9673723889e+01 4.7000000000e+00 0.0000e+00 -1.0000e+00
</event>
<event>
10      1 +4.6527485e-10 2.40000000e+02 7.81860800e-03 1.03012300e-01
      -11 -1    0    0    0    0 +0.0000000000e+00 +0.0000000000e+00 +1.2000000000e+02 1.2000000000e+02 0.0000000000e+00 0.0000e+00 1.0000e+00
       11 -1    0    0    0    0 -0.0000000000e+00 -0.0000000000e+00 -1.2000000000e+02 1.2000000000e+02 0.0000000000e+00 0.0000e+00 -1.0000e+00
       23  2    1    2    0    0 +2.4161296634e+01 -3.3828033352e+01 +3.9786930463e+01 1.0239216112e+02 8.4693864759e+01 0.0000e+00 0.0000e+00
       25  2    1    2    0    0 -2.4161296634e+01 +3.3828033352e+01 -3.9786930463e+01 1.3760783888e+02 1.2499925356e+02 0.0000e+00 0.0000e+00
      -11  1    3    3    0    0 +2.6698777198e+01 -2.2189169392e+01 +6.5456768857e+01 7.4092999206e+01 0.0000000000e+00 0.0000e+00 1.0000e+00
       11  1    3    3    0    0 -2.5374805640e+00 -1.1638863960e+01 -2.5669838394e+01 2.8299161914e+01 0.0000000000e+00 0.0000e+00 -1.0000e+00
        5  1    4    4  501    0 +9.0352532351e+00 -1.6535071206e+01 +2.0445654384e+01 2.8198566701e+01 4.7000000000e+00 0.0000e+00 -1.0000e+00
       -5  1    4    4    0  502 -1.5104590956e+01 +1.9481746605e+01 -2.0694465605e+01 3.2527496451e+01 4.7000000000e+00 0.0000e+00 1.0000e+00
        5  1    4    4  502    0 -5.5896052222e+00 +4.4311874619e+01 -3.6123759175e+01 5.7635075221e+01 4.7000000000e+00 0.0000e+00 1.0000e+00
       -5  1    4    4    0  501 -1.2502353691e+01 -1.3430516665e+01 -3.4143600669e+00 1.9246700506e+01 4.7000000000e+00 0.0000e+00 -1.0000e+00
</event>
<event>
10      1 +4.6527485e-10 2.40000000e+02 7.81860800e-03 1.03012300e-01
      -11 -1    0    0    0    0 +0.0000000000e+00 +0.0000000000e+00 +1.2000000000e+02 1.2000000000e+02 0.0000000000e+00 0.0000e+00 -1.0000e+00
       11 -1    0    0    0    0 -0.0000000000e+00 -0.0000000000e+00 -1.2000000000e+02 1.2000000000e+02 0.0000000000e+00 0.0000e+00 1.0000e+00
       23  2    1    2    0    0 +1.8575083176e+01 -9.8747743707e+00 +4.6721670085e+01 1.0490531159e+02 9.1540510490e+01 0.0000e+00 0.0000e+00
       25  2    1    2    0    0 -1.8575083176e+01 +9.8747743707e+00 -4.6721670085e+01 1.3509468841e+02 1.2500046199e+02 0.0000e+00 0.0000e+00
      -11  1    3    3    0    0 -2.6442372662e+00 -3.2163295579e+01 -1.5264948338e+01 3.5699975084e+01 0.0000000000e+00 0.0000e+00 1.0000e+00
       11  1    3    3    0    0 +2.1219320442e+01 +2.2288521208e+01 +6.1986618423e+01 6.9205336508e+01 0.0000000000e+00 0.0000e+00 -1.0000e+00
        5  1    4    4  501    0 +3.7652353600e+00 +3.5108938794e+00 +2.3917452918e-01 6.9749966024e+00 4.7000000000e+00 0.0000e+00 1.0000e+00
       -5  1    4    4    0  501 +1.7391795237e+01 +4.1445926377e+01 +1.1401452506e+01 4.6608180334e+01 4.7000000000e+00 0.0000e+00 -1.0000e+00
        5  1    4    4  502    0 -2.9052441096e+01 -2.6389581071e+01 -2.9962258166e+01 4.9601222134e+01 4.7000000000e+00 0.0000e+00 1.0000e+00
       -5  1    4    4    0  502 -1.0679672676e+01 -8.6924648147e+00 -2.8400038954e+01 3.1910289338e+01 4.7000000000e+00 0.0000e+00 1.0000e+00
</event>
<event>
10      1 +4.6527485e-10 2.40000000e+02 7.81860800e-03 1.03012300e-01
      -11 -1    0    0    0    0 +0.0000000000e+00 +0.0000000000e+00 +1.2000000000e+02 1.2000000000e+02 0.0000000000e+00 0.0000e+00 1.0000e+00
       11 -1    0    0    0    0 -0.0000000000e+00 -0.0000000000e+00 -1.2000000000e+02 1.2000000000e+02 0.0000000000e+00 0.0000e+00 -1.0000e+00
       23  2    1    2    0    0 +3.2548536424e+01 +3.5332910657e+01 +1.6073134635e+01 1.0512591354e+02 9.2115635168e+01 0.0000e+00 0.0000e+00
       25  2    1    2    0    0 -3.2548536424e+01 -3.5332910657e+01 -1.6073134635e+01 1.3487408646e+02 1.2499940697e+02 0.0000e+00 0.0000e+00
      -13  1    3    3    0    0 +4.3714230088e+01 +6.9939178121e+00 +4.4995639456e+01 6.3122550397e+01 0.0000000000e+00 0.0000e+00 1.0000e+00
       13  1    3    3    0    0 -1.1165693663e+01 +2.8338992844e+01 -2.8922504821e+01 4.2003363146e+01 0.0000000000e+00 0.0000e+00 -1.0000e+00
        5  1    4    4  501    0 -3.8376949907e+01 -6.0583231052e+00 -4.4791499326e+01 5.9479929177e+01 4.7000000000e+00 0.0000e+00 -1.0000e+00
       -5  1    4    4    0  501 -9.8628229694e+00 -1.0710504648e+01 -1.4772967278e+01 2.1267833669e+01 4.7000000000e+00 0.0000e+00 -1.0000e+00
        5  1    4    4  502    0 +1.0413305749e+01 -9.0326077894e+00 +3.8664224315e+01 4.1316306490e+01 4.7000000000e+00 0.0000e+00 -1.0000e+00
       -5  1    4    4    0  502 +5.2779307038e+00 -9.5314751137e+00 +4.8271076540e+00 1.2810017122e+01 4.7000000000e+00 0.0000e+00 -1.0000e+00
</event>
<event>
10      1 +4.6527485e-10 2.40000000e+02 7.81860800e-03 1.03012300e-01
      -11 -1    0    0    0    0 +0.0000000000e+00 +0.0000000000e+00 +1.2000000000e+02 1.2000000000e+02 0.0000000000e+00 0.0000e+00 1.0000e+00
       11 -1    0    0    0    0 -0.0000000000e+00 -0.0000000000e+00 -1.2000000000e+02 1.2000000000e+02 0.0000000000e+00 0.0000e+00 -1.0000e+00
       23  2    1    2    0    0 -2.3325902853e+01 -2.4558781863e+00 -4.3890607230e+01 1.0545837890e+02 9.2978251192e+01 0.0000e+00 0.0000e+00
       25  2    1    2    0    0 +2.3325902853e+01 +2.4558781863e+00 +4.3890607230e+01 1.3454162110e+02 1.2499973330e+02 0.0000e+00 0.0000e+00
      -13  1    3    3    0    0 +2.5241658093e+01 -8.9350601070e+00 +1.3507897210e+01 2.9990663371e+01 0.0000000000e+00 0.0000e+00 1.0000e+00
       13  1    3    3    0    0 -4.8567560946e+01 +6.4791819206e+00 -5.7398504440e+01 7.5467715525e+01 0.0000000000e+00 0.0000e+00 -1.0000e+00
        5  1    4    4  501    0 +5.1732280885e+01 -1.5234761363e+00 +7.8625980724e+00 5.2559112564e+01 4.7000000000e+00 0.0000e+00 1.0000e+00
       -5  1    4    4    0  502 -2.3215154011e+01 -1.1129176703e+01 +2.5209062726e+01 3.6337154448e+01 4.7000000000e+00 0.0000e+00 -1.0000e+00
        5  1    4    4  502    0 -1.9860418697e+01 +1.0615437265e+01 +1.6837416206e+01 2.8508109787e+01 4.7000000000e+00 0.0000e+00 -1.0000e+00
       -5  1    4    4    0  501 +1.4669194675e+01 +4.4930937600e+00 -6.0184697746e+00 1.7137244306e+01 4.7000000000e+00 0.0000e+00 1.0000e+00
</event>
<event>
10      1 +4.6527485e-10 2.40000000e+02 7.81860800e-03 1.03012300e-01
      -11 -1    0    0    0    0 +0.0000000000e+00 +0.0000000000e+00 +1.2000000000e+02 1.2000000000e+02 0.0000000000e+00 0.0000e+00 1.0000e+00
       11 -1    0    0    0    0 -0.0000000000e+00 -0.0000000000e+00 -1.2000000000e+02 1.2000000000e+02 0.0000000000e+00 0.0000e+00 -1.0000e+00
       23  2    1    2    0    0 -1.9851549176e+01 +1.3277414600e+01 -4.4267497867e+01 1.0526127784e+02 9.2465947800e+01 0.0000e+00 0.0000e+00
       25  2    1    2    0    0 +1.9851549176e+01 -1.3277414600e+01 +4.4267497867e+01 1.3473872216e+02 1.2499815254e+02 0.0000e+00 0.0000e+00
      -13  1    3    3    0    0 +2.3585540942e+00 -7.3614837949e+00 +2.6855284769e+01 2.7945671241e+01 0.0000000000e+00 0.0000e+00 1.0000e+00
       13  1    3    3    0    0 -2.2210103270e+01 +2.0638898395e+01 -7.1122782636e+01 7.7315606602e+01 0.0000000000e+00 0.0000e+00 -1.0000e+00
        5  1    4    4  501    0 +6.0897154704e-01 +2.1720574656e+01 +2.8499934927e+01 3.6145407738e+01 4.7000000000e+00 0.0000e+00 1.0000e+00
       -5  1    4    4    0  501 +1.0566482469e+01 +8.3114741437e+00 +4.1112438499e+01 4.3509237566e+01 4.7000000000e+00 0.0000e+00 1.0000e+00
        5  1    4    4  502    0 +1.1733040669e+01 -2.7590475830e+01 -8.8328168448e+00 3.1607076000e+01 4.7000000000e+00 0.0000e+00 -1.0000e+00
       -5  1    4    4    0  502 -3.0569455098e+00 -1.5718987570e+01 -1.6512058714e+01 2.3477000853e+01 4.7000000000e+00 0.0000e+00 -1.0000e+00
</event>
<event>
10      1 +4.6527485e-10 2.40000000e+02 7.81860800e-03 1.03012300e-01
      -11 -1    0    0    0    0 +0.0000000000e+00 +0.0000000000e+00 +1.2000000000e+02 1.2000000000e+02 0.0000000000e+00 0.0000e+00 1.0000e+00
       11 -1    0    0    0    0 -0.0000000000e+00 -0.0000000000e+00 -1.2000000000e+02 1.2000000000e+02 0.0000000000e+00 0.0000e+00 -1.0000e+00
       23  2    1    2    0    0 +1.3303042166e+01 -4.6280253951e+01 -5.3215585604e+00 1.0593951196e+02 9.4212676284e+01 0.0000e+00 0.0000e+00
       25  2    1    2    0    0 -1.3303042166e+01 +4.6280253951e+01 +5.3215585604e+00 1.3406048804e+02 1.2500025052e+02 0.0000e+00 0.0000e+00
      -11  1    3    3    0    0 -1.2392501391e+01 -5.4782834780e+01 -3.4678243871e+01 6.6009951335e+01 0.0000000000e+00 0.0000e+00 -1.0000e+00
       11  1    3    3    0    0 +2.5695543557e+01 +8.5025808288e+00 +2.9356685311e+01 3.9929560627e+01 0.0000000000e+00 0.0000e+00 1.0000e+00
        5  1    4    4  501    0 +5.4821404934e+00 -8.0253468187e+00 -6.3210678067e+00 1.2510233977e+01 4.7000000000e+00 0.0000e+00 -1.0000e+00
       -5  1    4    4    0  501 +1.4194400534e+01 +1.0011517978e+01 -3.9413528468e+01 4.3326986107e+01 4.7000000000e+00 0.0000e+00 -1.0000e+00
        5  1    4    4  502    0 -7.7571759232e+00 +1.2713088233e+00 +8.4844578468e+00 1.2484631728e+01 4.7000000000e+00 0.0000e+00 1.0000e+00
       -5  1    4    4    0  502 -2.5222407270e+01 +4.3022773969e+01 +4.2571696989e+01 6.5738636227e+01 4.7000000000e+00 0.0000e+00 1.0000e+00
</event>
<event>
10      1 +4.6527485e-10 2.40000000e+02 7.81860800e-03 1.03012300e-01
      -11 -1    0    0    0    0 +0.0000000000e+00 +0.0000000000e+00 +1.2000000000e+02 1.2000000000e+02 0.0000000000e+00 0.0000e+00 1.0000e+00
       11 -1    0    0    0    0 -0.0000000000e+00 -0.0000000000e+00 -1.2000000000e+02 1.2000000000e+02 0.0000000000e+00 0.0000e+00 -1.0000e+00
       23  2    1    2    0    0 -2.5114360834e+01 -2.7418272757e+01 +2.8632256805e+01 1.0648235464e+02 9.5583434334e+01 0.0000e+00 0.0000e+00
       25  2    1    2    0    0 +2.5114360834e+01 +2.7418272757e+01 -2.8632256805e+01 1.3351764536e+02 1.2499865076e+02 0.0000e+00 0.0000e+00
      -13  1    3    3    0    0 -3.0756468184e+00 -3.5005634707e+00 -3.4846640274e+01 3.5156818490e+01 0.0000000000e+00 0.0000e+00 -1.0000e+00
       13  1    3    3    0    0 -2.2038714015e+01 -2.3917709286e+01 +6.3478897079e+01 7.1325536151e+01 0.0000000000e+00 0.0000e+00 1.0000e+00
        5  1    4    4  501    0 +2.9109220551e-01 +8.5455880204e+00 -4.1743309312e+00 1.0612579706e+01 4.7000000000e+00 0.0000e+00 1.0000e+00
       -5  1    4    4    0  501 -2.6603948926e+01 +4.8717177556e+01 -1.1820551420e-01 5.5706709290e+01 4.7000000000e+00 0.0000e+00 -1.0000e+00
        5  1    4    4  502    0 +1.9072843312e+01 -2.0092311374e+01 -7.1474303941e+00 2.8993966434e+01 4.7000000000e+00 0.0000e+00 1.0000e+00
       -5  1    4    4    0  502 +3.2354374242e+01 -9.7521814450e+00 -1.7192289965e+01 3.8204389928e+01 4.7000000000e+00 0.0000e+00 1.0000e+00
</event>
<event>
10      1 +4.6527485e-10 2.40000000e+02 7.81860800e-03 1.03012300e-01
      -11 -1    0    0    0    0 +0.0000000000e+00 +0.0000000000e+00 +1.2000000000e+02 1.2000000000e+02 0.0000000000e+00 0.0000e+00 -1.0000e+00
       11 -1    0    0    0    0 -0.0000000000e+00 -0.0000000000e+00 -1.2000000000e+02 1.2000000000e+02 0.0000000000e+00 0.0000e+00 1.0000e+00
       23  2    1    2    0    0 +1.3917470414e+01 +3.5245316487e+01 +3.4894162839e+01 1.0479891434e+02 9.1264897581e+01 0.0000e+00 0.0000e+00
       25  2    1    2    0    0 -1.3917470414e+01 -3.5245316487e+01 -3.4894162839e+01 1.3520108566e+02 1.2500321054e+02 0.0000e+00 0.0000e+00
      -13  1    3    3    0    0 +2.9836242842e+01 -6.9982071060e+00 +4.8745239360e+01 5.7578421738e+01 0.0000000000e+00 0.0000e+00 -1.0000e+00
       13  1    3    3    0    0 -1.5918772428e+01 +4.2243523593e+01 -1.3851076521e+01 4.7220492605e+01 0.0000000000e+00 0.0000e+00 1.0000e+00
        5  1    4    4  501    0 +1.5254679921e+01 +1.0833871281e+00 -6.3407358283e+00 1.7209704181e+01 4.7000000000e+00 0.0000e+00 -1.0000e+00
       -5  1    4    4    0  501 +1.5884159913e+01 +2.2999865893e+01 -1.8167055583e+01 3.3666485943e+01 4.7000000000e+00 0.0000e+00 -1.0000e+00
        5  1    4    4  502    0 -7.1131452963e+00 -1.2308267824e+01 +1.2540317469e+01 1.9530485275e+01 4.7000000000e+00 0.0000e+00 -1.0000e+00
       -5  1    4    4    0  502 -3.7943164951e+01 -4.7020301683e+01 -2.2926688897e+01 6.4794410258e+01 4.7000000000e+00 0.0000e+00 -1.0000e+00
</event>
<event>
10      1 +4.6527485e-10 2.40000000e+02 7.81860800e-03 1.03012300e-01
      -11 -1    0    0    0    0 +0.0000000000e+00 +0.0000000000e+00 +1.2000000000e+02 1.2000000000e+02 0.0000000000e+00 0.0000e+00 1.0000e+00
       11 -1    0    0    0    0 -0.0000000000e+00 -0.0000000000e+00 -1.2000000000e+02 1.2000000000e+02 0.0000000000e+00 0.0000e+00 -1.0000e+00
       23  2    1    2    0    0 +4.3577806248e+01 -1.9476026979e+01 -2.4588516361e+01 1.0395589054e+02 8.9016241309e+01 0.0000e+00 0.0000e+00
       25  2    1    2    0    0 -4.3577806248e+01 +1.9476026979e+01 +2.4588516361e+01 1.3604410946e+02 1.2500025503e+02 0.0000e+00 0.0000e+00
      -11  1    3    3    0    0 -2.2113016065e+01 -2.0848644199e+01 -2.3202339948e+01 3.8236108896e+01 0.0000000000e+00 0.0000e+00 -1.0000e+00
       11  1    3    3    0    0 +6.5690822313e+01 +1.3726172199e+00 -1.3861764132e+00 6.5719781644e+01 0.0000000000e+00 0.0000e+00 1.0000e+00
        5  1    4    4  501    0 -1.6434786129e+01 +1.4480235470e+01 -3.6143024428e+00 2.2692126312e+01 4.7000000000e+00 0.0000e+00 1.0000e+00
       -5  1    4    4    0  501 -1.8456438003e+01 +1.9947637155e+01 -3.3790917428e+01 4.3617249254e+01 4.7000000000e+00 0.0000e+00 1.0000e+00
        5  1    4    4  502    0 -1.3567027433e+01 -3.7804756686e+00 +1.5599328627e+01 2.1535674665e+01 4.7000000000e+00 0.0000e+00 -1.0000e+00
       -5  1    4    4    0  502 +4.8804453169e+00 -1.1171369978e+01 +4.6394407605e+01 4.8199059231e+01 4.7000000000e+00 0.0000e+00 -1.0000e+00
</event>
<event>
10      1 +4.6527485e-10 2.40000000e+02 7.81860800e-03 1.03012300e-01
      -11 -1    0    0    0    0 +0.0000000000e+00 +0.0000000000e+00 +1.2000000000e+02 1.2000000000e+02 0.0000000000e+00 0.0000e+00 1.0000e+00
       11 -1    0    0    0    0 -0.0000000000e+00 -0.0000000000e+00 -1.2000000000e+02 1.2000000000e+02 0.0000000000e+00 0.0000e+00 -1.0000e+00
       23  2    1    2    0    0 -5.7083852657e+01 -2.1049408294e+01 -1.5785052463e+01 1.0008822365e+02 7.7889927518e+01 0.0000e+00 0.0000e+00
       25  2    1    2    0    0 +5.7083852657e+01 +2.1049408294e+01 +1.5785052463e+01 1.3991177635e+02 1.2499797381e+02 0.0000e+00 0.0000e+00
      -13  1    3    3    0    0 -7.5593553579e+01 -1.4335004939e+01 -2.0931023201e+01 7.9736976627e+01 0.0000000000e+00 0.0000e+00 1.0000e+00
       13  1    3    3    0    0 +1.8509700922e+01 -6.7144033548e+00 +5.1459707375e+00 2.0351247025e+01 0.0000000000e+00 0.0000e+00 -1.0000e+00
        5  1    4    4  501    0 +1.6311748771e+00 +1.0162347021e+00 -1.4913317895e+00 5.2922145606e+00 4.7000000000e+00 0.0000e+00 1.0000e+00
       -5  1    4    4    0  502 +2.7238920646e+01 -5.4082024243e+00 +3.7658687317e+01 4.7026313718e+01 4.7000000000e+00 0.0000e+00 -1.0000e+00
        5  1    4    4  502    0 +3.0386745749e+01 +6.8228982299e+00 +2.3729139946e+01 3.9434354820e+01 4.7000000000e+00 0.0000e+00 -1.0000e+00
       -5  1    4    4    0  501 -2.1729886155e+00 +1.8618477786e+01 -4.4111443011e+01 4.8158893250e+01 4.7000000000e+00 0.0000e+00 -1.0000e+00
</event>
<event>
10      1 +4.6527485e-10 2.40000000e+02 7.81860800e-03 1.03012300e-01
      -11 -1    0    0    0    0 +0.0000000000e+00 +0.0000000000e+00 +1.2000000000e+02 1.2000000000e+02 0.0000000000e+00 0.0000e+00 1.0000e+00
       11 -1    0    0    0    0 -0.0000000000e+00 -0.0000000000e+00 -1.2000000000e+02 1.2000000000e+02 0.0000000000e+00 0.0000e+00 -1.0000e+00
       23  2    1    2    0    0 -3.5196134320e+01 -1.0121249337e+01 -4.0623349879e+01 1.0355799608e+02 8.7936308977e+01 0.0000e+00 0.0000e+00
       25  2    1    2    0    0 +3.5196134320e+01 +1.0121249337e+01 +4.0623349879e+01 1.3644200392e+02 1.2499982528e+02 0.0000e+00 0.0000e+00
      -11  1    3    3    0    0 -3.6617610920e+01 -3.7723234898e+01 +2.1674789638e+00 5.2617391096e+01 0.0000000000e+00 0.0000e+00 1.0000e+00
       11  1    3    3    0    0 +1.4214766005e+00 +2.7601985561e+01 -4.2790828843e+01 5.0940604980e+01 0.0000000000e+00 0.0000e+00 -1.0000e+00
        5  1    4    4  501    0 +8.7112425366e-01 +1.3342409186e+01 +1.1059095522e+01 1.7976994580e+01 4.7000000000e+00 0.0000e+00 1.0000e+00
       -5  1    4    4    0  502 +1.3502814359e+01 -2.2477170425e+01 -3.9489387179e+00 2.6930156014e+01 4.7000000000e+00 0.0000e+00 -1.0000e+00
        5  1    4    4  502    0 +3.5886724329e+01 -8.0759607711e+00 -9.4090888242e+00 3.8258320376e+01 4.7000000000e+00 0.0000e+00 -1.0000e+00
       -5  1    4    4    0  501 -1.5064528622e+01 +2.7331971347e+01 +4.2922281899e+01 5.3276532955e+01 4.7000000000e+00 0.0000e+00 1.0000e+00
</event>
<event>
10      1 +4.6527485e-10 2.40000000e+02 7.81860800e-03 1.03012300e-01
      -11 -1    0    0    0    0 +0.0000000000e+00 +0.0000000000e+00 +1.2000000000e+02 1.2000000000e+02 0.0000000000e+00 0.0000e+00 1.0000e+00
       11 -1    0    0    0    0 -0.0000000000e+00 -0.0000000000e+00 -1.2000000000e+02 1.2000000000e+02 0.0000000000e+00 0.0000e+00 -1.0000e+00
       23  2    1    2    0    0 -1.6952461365e+01 -1.7830786699e+01 +4.5161115696e+01 1.0483010968e+02 9.1348249157e+01 0.0000e+00 0.0000e+00
       25  2    1    2    0    0 +1.6952461365e+01 +1.7830786699e+01 -4.5161115696e+01 1.3516989032e+02 1.2500419984e+02 0.0000e+00 0.0000e+00
      -11  1    3    3    0    0 -5.0512791129e+01 -9.3411771654e+00 +4.7725322292e+01 7.0117801209e+01 0.0000000000e+00 0.0000e+00 -1.0000e+00
       11  1    3    3    0    0 +3.3560329765e+01 -8.4896095336e+00 -2.5642065963e+00 3.4712308471e+01 0.0000000000e+00 0.0000e+00 1.0000e+00
        5  1    4    4  501    0 +1.4416189522e+01 +3.2139925532e+01 -3.1141366935e+01 4.7251201764e+01 4.7000000000e+00 0.0000e+00 -1.0000e+00
       -5  1    4    4    0  501 +1.4515579399e+01 +1.2722483048e+01 -3.6389398958e+01 4.1458919146e+01 4.7000000000e+00 0.0000e+00 -1.0000e+00
        5  1    4    4  502    0 -1.6399235171e+00 -1.3815481125e+01 -3.6613771090e+00 1.5134482158e+01 4.7000000000e+00 0.0000e+00 1.0000e+00
       -5  1    4    4    0  502 -1.0339384039e+01 -1.3216140756e+01 +2.6031027307e+01 3.1325287252e+01 4.7000000000e+00 0.0000e+00 1.0000e+00
</event>
<event>
10      1 +4.6527485e-10 2.40000000e+02 7.81860800e-03 1.03012300e-01
      -11 -1    0    0    0    0 +0.0000000000e+00 +0.0000000000e+00 +1.2000000000e+02 1.2000000000e+02 0.0000000000e+00 0.0000e+00 1.0000e+00
       11 -1    0    0    0    0 -0.0000000000e+00 -0.0000000000e+00 -1.2000000000e+02 1.2000000000e+02 0.0000000000e+00 0.0000e+00 -1.0000e+00
       23  2    1    2    0    0 +2.1907122567e+01 -4.4993388872e+01 -1.0851194675e+01 1.0491774748e+02 9.1573239814e+01 0.0000e+00 0.0000e+00
       25  2    1    2    0    0 -2.1907122567e+01 +4.4993388872e+01 +1.0851194675e+01 1.3508225252e+02 1.2500055783e+02 0.0000e+00 0.0000e+00
      -11  1    3    3    0    0 -1.8670496347e+01 -4.5660225647e+01 +2.0715770288e+01 5.3503147370e+01 0.0000000000e+00 0.0000e+00 1.0000e+00
       11  1    3    3    0    0 +4.0577618914e+01 +6.6683677417e-01 -3.1566964962e+01 5.1414600115e+01 0.0000000000e+00 0.0000e+00 -1.0000e+00
        5  1    4    4  501    0 +1.2174672786e+01 -1.4964718711e+01 -5.6339251773e+00 2.0639684504e+01 4.7000000000e+00 0.0000e+00 -1.0000e+00
       -5  1    4    4    0  501 +1.5878518606e+01 -1.6532074287e+00 -1.9162844318e+01 2.5380406819e+01 4.7000000000e+00 0.0000e+00 -1.0000e+00
        5  1    4    4  502    0 -1.5082778252e+01 +3.1515048670e+01 +1.3764597847e+01 3.7844981786e+01 4.7000000000e+00 0.0000e+00 1.0000e+00
       -5  1    4    4    0  502 -3.4877535706e+01 +3.0096266342e+01 +2.1883366323e+01 5.1217179406e+01 4.7000000000e+00 0.0000e+00 1.0000e+00
</event>
<event>
10      1 +4.6527485e-10 2.40000000e+02 7.81860800e-03 1.03012300e-01
      -11 -1    0    0    0    0 +0.0000000000e+00 +0.0000000000e+00 +1.2000000000e+02 1.2000000000e+02 0.0000000000e+00 0.0000e+00 1.0000e+00
       11 -1    0    0    0    0 -0.0000000000e+00 -0.0000000000e+00 -1.2000000000e+02 1.2000000000e+02 0.0000000000e+00 0.0000e+00 -1.0000e+00
       23  2    1    2    0    0 +3.1544179919e+01 +4.0919661970e+01 +1.0564142143e+01 1.0433543168e+02 9.0026813680e+01 0.0000e+00 0.0000e+00
       25  2    1    2    0    0 -3.1544179919e+01 -4.0919661970e+01 -1.0564142143e+01 1.3566456832e+02 1.2499527982e+02 0.0000e+00 0.0000e+00
      -13  1    3    3    0    0 -1.9637072482e+01 -3.2750817383e+00 +2.8136865798e+01 3.4467723932e+01 0.0000000000e+00 0.0000e+00 1.0000e+00
       13  1    3    3    0    0 +5.1181252401e+01 +4.4194743708e+01 -1.7572723656e+01 6.9867707744e+01 0.0000000000e+00 0.0000e+00 -1.0000e+00
        5  1    4    4  501    0 +2.1666581798e+00 -6.2322006378e+00 -9.1221118356e+00 1.2199903967e+01 4.7000000000e+00 0.0000e+00 1.0000e+00
       -5  1    4    4    0  502 -1.3336439399e+01 -2.1351087992e+01 +6.2925983470e+00 2.6370748344e+01 4.7000000000e+00 0.0000e+00 -1.0000e+00
        5  1    4    4  502    0 -1.0948298222e+01 -3.8155516914e+01 +3.0520648908e+01 5.0292233145e+01 4.7000000000e+00 0.0000e+00 -1.0000e+00
       -5  1    4    4    0  501 -9.4261004778e+00 +2.4819143574e+01 -3.8255277562e+01 4.6801682868e+01 4.7000000000e+00 0.0000e+00 1.0000e+00
</event>
<event>
10      1 +4.6527485e-10 2.40000000e+02 7.81860800e-03 1.03012300e-01
      -11 -1    0    0    0    0 +0.0000000000e+00 +0.0000000000e+00 +1.2000000000e+02 1.2000000000e+02 0.0000000000e+00 0.0000e+00 -1.0000e+00
       11 -1    0    0    0    0 -0.0000000000e+00 -0.0000000000e+00 -1.2000000000e+02 1.2000000000e+02 0.0000000000e+00 0.0000e+00 1.0000e+00
       23  2    1    2    0    0 -7.8615874242e+00 +2.9448924588e+01 -4.1368720698e+01 1.0484969878e+02 9.1394992017e+01 0.0000e+00 0.0000e+00
       25  2    1    2    0    0 +7.8615874242e+00 -2.9448924588e+01 +4.1368720698e+01 1.3515030122e+02 1.2500075660e+02 0.0000e+00 0.0000e+00
      -13  1    3    3    0    0 -3.4934314674e+01 +2.0638154188e+01 -5.8819435381e+01 7.1456740260e+01 0.0000000000e+00 0.0000e+00 1.0000e+00
       13  1    3    3    0    0 +2.7072727250e+01 +8.8107703995e+00 +1.7450714683e+01 3.3392958520e+01 0.0000000000e+00 0.0000e+00 -1.0000e+00
        5  1    4    4  501    0 +1.5986076867e+01 +1.6654022448e+01 +2.1245629555e+01 3.1723459655e+01 4.7000000000e+00 0.0000e+00 -1.0000e+00
       -5  1    4    4    0  501 -4.0697381714e+00 +2.4434532921e+01 +1.5313683943e+01 2.9499289547e+01 4.7000000000e+00 0.0000e+00 -1.0000e+00
        5  1    4    4  502    0 +5.7947031296e+00 -2.3280629130e+01 -3.5766331714e+00 2.4707257677e+01 4.7000000000e+00 0.0000e+00 -1.0000e+00
       -5  1    4    4    0  502 -9.8494544013e+00 -4.7256850826e+01 +8.3860403713e+00 4.9220294342e+01 4.7000000000e+00 0.0000e+00 -1.0000e+00
</event>
<event>
10      1 +4.6527485e-10 2.40000000e+02 7.81860800e-03 1.03012300e-01
      -11 -1    0    0    0    0 +0.0000000000e+00 +0.0000000000e+00 +1.2000000000e+02 1.2000000000e+02 0.0000000000e+00 0.0000e+00 -1.0000e+00
       11 -1    0    0    0    0 -0.0000000000e+00 -0.0000000000e+00 -1.2000000000e+02 1.2000000000e+02 0.0000000000e+00 0.0000e+00 1.0000e+00
       23  2    1    2    0    0 +3.5832896571e+01 +5.9802791230e+00 +3.6870857324e+01 1.0470501919e+02 9.1016046437e+01 0.0000e+00 0.0000e+00
       25  2    1    2    0    0 -3.5832896571e+01 -5.9802791230e+00 -3.6870857324e+01 1.3529498081e+02 1.2500204597e+02 0.0000e+00 0.0000e+00
      -13  1    3    3    0    0 +4.3953678246e+01 -2.4205297167e+00 -1.8766811164e+01 4.7853714555e+01 0.0000000000e+00 0.0000e+00 1.0000e+00
       13  1    3    3    0    0 -8.1207816746e+00 +8.4008088397e+00 +5.5637668488e+01 5.6851304637e+01 0.0000000000e+00 0.0000e+00 -1.0000e+00
        5  1    4    4  501    0 +9.8199802524e+00 -6.0033403071e-01 -1.1426931962e+01 1.5794213724e+01 4.7000000000e+00 0.0000e+00 1.0000e+00
       -5  1    4    4    0  502 -4.9287539928e+00 +8.7619110302e-01 -1.2264217503e-01 6.8677047020e+00 4.7000000000e+00 0.0000e+00 -1.0000e+00
        5  1    4    4  502    0 -5.2371302656e+01 -3.2915315583e+01 +1.3901646231e+01 6.3572927490e+01 4.7000000000e+00 0.0000e+00 1.0000e+00
       -5  1    4    4    0  501 +1.1647179825e+01 +2.6659179388e+01 -3.9222929417e+01 4.9060134891e+01 4.7000000000e+00 0.0000e+00 -1.0000e+00
</event>
<event>
10      1 +4.6527485e-10 2.40000000e+02 7.81860800e-03 1.03012300e-01
      -11 -1    0    0    0    0 +0.0000000000e+00 +0.0000000000e+00 +1.2000000000e+02 1.2000000000e+02 0.0000000000e+00 0.0000e+00 1.0000e+00
       11 -1    0    0    0    0 -0.0000000000e+00 -0.0000000000e+00 -1.2000000000e+02 1.2000000000e+02 0.0000000000e+00 0.0000e+00 -1.0000e+00
       23  2    1    2    0    0 -2.9902417675e+01 -3.9167899083e+01 +1.4098734904e+01 1.0490675286e+02 9.1533456005e+01 0.0000e+00 0.0000e+00
       25  2    1    2    0    0 +2.9902417675e+01 +3.9167899083e+01 -1.4098734904e+01 1.3509324714e+02 1.2499252856e+02 0.0000e+00 0.0000e+00
      -13  1    3    3    0    0 -4.7178779501e+01 -1.1559456701e+01 +4.0293530144e+01 6.3111225989e+01 0.0000000000e+00 0.0000e+00 1.0000e+00
       13  1    3    3    0    0 +1.7276361825e+01 -2.7608442382e+01 -2.6194795240e+01 4.1795526870e+01 0.0000000000e+00 0.0000e+00 -1.0000e+00
        5  1    4    4  501    0 +1.6877158611e+01 -2.5676197328e+01 +3.1482563208e+00 3.1242712908e+01 4.7000000000e+00 0.0000e+00 1.0000e+00
       -5  1    4    4    0  501 -5.5308066554e+00 -1.4477187863e+01 -7.3090113020e+00 1.7767679558e+01 4.7000000000e+00 0.0000e+00 1.0000e+00
        5  1    4    4  502    0 -4.7020344884e+00 +2.7906437356e+01 -6.1221809701e-01 2.8693957294e+01 4.7000000000e+00 0.0000e+00 1.0000e+00
       -5  1    4    4    0  502 +2.3258100208e+01 +5.1414846918e+01 -9.3257618252e+00 5.7388897380e+01 4.7000000000e+00 0.0000e+00 1.0000e+00
</event>
<event>
10      1 +4.6527485e-10 2.40000000e+02 7.81860800e-03 1.03012300e-01
      -11 -1    0    0    0    0 +0.0000000000e+00 +0.0000000000e+00 +1.2000000000e+02 1.2000000000e+02 0.0000000000e+00 0.0000e+00 1.0000e+00
       11 -1    0    0    0    0 -0.0000000000e+00 -0.0000000000e+00 -1.2000000000e+02 1.2000000000e+02 0.0000000000e+00 0.0000e+00 -1.0000e+00
       23  2    1    2    0    0 +1.8176668984e+01 +3.3492536125e+01 -3.1434503096e+01 1.0559110442e+02 9.3323159383e+01 0.0000e+00 0.0000e+00
       25  2    1    2    0    0 -1.8176668984e+01 -3.3492536125e+01 +3.1434503096e+01 1.3440889558e+02 1.2500192780e+02 0.0000e+00 0.0000e+00
      -13  1    3    3    0    0 -1.4989381908e+01 +5.3957243453e+01 -7.7681276282e-01 5.6005974049e+01 0.0000000000e+00 0.0000e+00 1.0000e+00
       13  1    3    3    0    0 +3.3166050893e+01 -2.0464707328e+01 -3.0657690333e+01 4.9585130376e+01 0.0000000000e+00 0.0000e+00 -1.0000e+00
        5  1    4    4  501    0 +1.7891856272e+01 -6.5282910473e+00 +1.6942528045e+00 1.9690038025e+01 4.7000000000e+00 0.0000e+00 1.0000e+00
       -5  1    4    4    0  502 +1.6924918865e+01 -1.8773344760e+01 -1.7143055469e+01 3.0900901328e+01 4.7000000000e+00 0.0000e+00 1.0000e+00
        5  1    4    4  502    0 -5.5725637240e+01 +2.7102347571e+00 +4.4227651601e+01 7.1350313134e+01 4.7000000000e+00 0.0000e+00 -1.0000e+00
       -5  1    4    4    0  501 +2.7321931186e+00 -1.0901135076e+01 +2.6556541591e+00 1.2467643089e+01 4.7000000000e+00 0.0000e+00 -1.0000e+00
</event>
<event>
10      1 +4.6527485e-10 2.40000000e+02 7.81860800e-03 1.03012300e-01
      -11 -1    0    0    0    0 +0.0000000000e+00 +0.0000000000e+00 +1.2000000000e+02 1.2000000000e+02 0.0000000000e+00 0.0000e+00 -1.0000e+00
       11 -1    0    0    0    0 -0.0000000000e+00 -0.0000000000e+00 -1.2000000000e+02 1.2000000000e+02 0.0000000000e+00 0.0000e+00 1.0000e+00
       23  2    1    2    0    0 +9.9456923661e+00 -2.2840893450e+01 +4.2951165366e+01 1.0549866564e+02 9.3083525044e+01 0.0000e+00 0.0000e+00
       25  2    1    2    0    0 -9.9456923661e+00 +2.2840893450e+01 -4.2951165366e+01 1.3450133436e+02 1.2500073251e+02 0.0000e+00 0.0000e+00
      -11  1    3    3    0    0 +2.4709333077e+01 -3.6584801504e+00 -2.3795263982e+01 3.4498553681e+01 0.0000000000e+00 0.0000e+00 1.0000e+00
       11  1    3    3    0    0 -1.4763640711e+01 -1.9182413299e+01 +6.6746429348e+01 7.1000111955e+01 0.0000000000e+00 0.0000e+00 -1.0000e+00
        5  1    4    4  501    0 +2.8566069070e+00 +3.9940605165e+01 -4.7707189504e+01 6.2461812929e+01 4.7000000000e+00 0.0000e+00 -1.0000e+00
       -5  1    4    4    0  501 +1.1231638378e+00 +1.9833799843e+01 -1.0695280054e+01 2.3046043666e+01 4.7000000000e+00 0.0000e+00 -1.0000e+00
        5  1    4    4  502    0 -1.5057776105e+01 -3.8311278473e+01 +1.3182672885e+01 4.3478311190e+01 4.7000000000e+00 0.0000e+00 1.0000e+00
       -5  1    4    4    0  502 +1.1323129942e+00 +1.3777669149e+00 +2.2686313072e+00 5.5151665792e+00 4.7000000000e+00 0.0000e+00 1.0000e+00
</event>
<event>
10      1 +4.6527485e-10 2.40000000e+02 7.81860800e-03 1.03012300e-01
      -11 -1    0    0    0    0 +0.0000000000e+00 +0.0000000000e+00 +1.2000000000e+02 1.2000000000e+02 0.0000000000e+00 0.0000e+00 1.0000e+00
       11 -1    0    0    0    0 -0.0000000000e+00 -0.0000000000e+00 -1.2000000000e+02 1.2000000000e+02 0.0000000000e+00 0.0000e+00 -1.0000e+00
       23  2    1    2    0    0 -4.8449804560e+01 +1.6008238779e+01 -1.3291319820e+01 1.0433430453e+02 9.0029665385e+01 0.0000e+00 0.0000e+00
       25  2    1    2    0    0 +4.8449804560e+01 -1.6008238779e+01 +1.3291319820e+01 1.3566569547e+02 1.2499949789e+02 0.0000e+00 0.0000e+00
      -13  1    3    3    0    0 -3.4684454097e+01 -1.9285802773e+01 -4.1257677662e+01 5.7246392992e+01 0.0000000000e+00 0.0000e+00 -1.0000e+00
       13  1    3    3    0    0 -1.3765350463e+01 +3.5294041552e+01 +2.7966357842e+01 4.7087911541e+01 0.0000000000e+00 0.0000e+00 1.0000e+00
        5  1    4    4  501    0 -1.1753319425e+00 -2.0191649608e+01 +7.3284942367e+00 2.2020012417e+01 4.7000000000e+00 0.0000e+00 -1.0000e+00
       -5  1    4    4    0  501 -1.8427636008e+01 -2.8775265311e+01 +6.0861585939e+00 3.5024634031e+01 4.7000000000e+00 0.0000e+00 -1.0000e+00
        5  1    4    4  502    0 +2.0024717751e+01 +3.0399708899e+00 -5.7244302905e+00 2.1565941810e+01 4.7000000000e+00 0.0000e+00 -1.0000e+00
       -5  1    4    4    0  502 +4.8028054759e+01 +2.9918705251e+01 +5.6010972799e+00 5.7055107208e+01 4.7000000000e+00 0.0000e+00 -1.0000e+00
</event>
<event>
10      1 +4.6527485e-10 2.40000000e+02 7.81860800e-03 1.03012300e-01
      -11 -1    0    0    0    0 +0.0000000000e+00 +0.0000000000e+00 +1.2000000000e+02 1.2000000000e+02 0.0000000000e+00 0.0000e+00 -1.0000e+00
       11 -1    0    0    0    0 -0.0000000000e+00 -0.0000000000e+00 -1.2000000000e+02 1.2000000000e+02 0.0000000000e+00 0.0000e+00 1.0000e+00
       23  2    1    2    0    0 -2.6298630596e+01 -3.6688811662e+01 +2.7828474216e+00 1.0706950928e+02 9.7048692450e+01 0.0000e+00 0.0000e+00
       25  2    1    2    0    0 +2.6298630596e+01 +3.6688811662e+01 -2.7828474216e+00 1.3293049072e+02 1.2500033700e+02 0.0000e+00 0.0000e+00
      -11  1    3    3    0    0 +1.9155767201e+01 -1.4437713243e+01 +3.8335202112e+01 4.5221440730e+01 0.0000000000e+00 0.0000e+00 -1.0000e+00
       11  1    3    3    0    0 -4.5454397796e+01 -2.2251098419e+01 -3.5552354691e+01 6.1848068554e+01 0.0000000000e+00 0.0000e+00 1.0000e+00
        5  1    4    4  501    0 -3.5183841771e+00 -1.2671487982e+00 -5.9818931526e+00 8.4768944186e+00 4.7000000000e+00 0.0000e+00 -1.0000e+00
       -5  1    4    4    0  501 -3.8673522535e+01 +3.4824743608e+01 -1.0651174763e+01 5.3328619300e+01 4.7000000000e+00 0.0000e+00 -1.0000e+00
        5  1    4    4  502    0 +5.6171400442e+01 +1.8761145208e+00 +9.5656785366e+00 5.7204355072e+01 4.7000000000e+00 0.0000e+00 -1.0000e+00
       -5  1    4    4    0  502 +1.2319136865e+01 +1.2551023309e+00 +4.2845419577e+00 1.3920621924e+01 4.7000000000e+00 0.0000e+00 -1.0000e+00
</event>
<event>
10      1 +4.6527485e-10 2.40000000e+02 7.81860800e-03 1.03012300e-01
      -11 -1    0    0    0    0 +0.0000000000e+00 +0.0000000000e+00 +1.2000000000e+02 1.2000000000e+02 0.0000000000e+00 0.0000e+00 1.0000e+00
       11 -1    0    0    0    0 -0.0000000000e+00 -0.0000000000e+00 -1.2000000000e+02 1.2000000000e+02 0.0000000000e+00 0.0000e+00 -1.0000e+00
       23  2    1    2    0    0 +2.7993813400e+01 -4.0282035787e+01 +1.9061391872e+01 1.0437441884e+02 9.0135379582e+01 0.0000e+00 0.0000e+00
       25  2    1    2    0    0 -2.7993813400e+01 +4.0282035787e+01 -1.9061391872e+01 1.3562558116e+02 1.2499866243e+02 0.0000e+00 0.0000e+00
      -13  1    3    3    0    0 +1.2124591854e+00 -3.8668389641e+01 -2.9663683804e+01 4.8750882572e+01 0.0000000000e+00 0.0000e+00 -1.0000e+00
       13  1    3    3    0    0 +2.6781354214e+01 -1.6136461467e+00 +4.8725075676e+01 5.5623536269e+01 0.0000000000e+00 0.0000e+00 1.0000e+00
        5  1    4    4  501    0 -3.2172465175e+01 +5.3657492388e+01 +2.4061599986e+00 6.2785934816e+01 4.7000000000e+00 0.0000e+00 -1.0000e+00
       -5  1    4    4    0  501 +2.6008005526e+00 +2.3722016766e+01 -1.8533607113e+01 3.0579124179e+01 4.7000000000e+00 0.0000e+00 -1.0000e+00
        5  1    4    4  502    0 -4.0409766841e+00 -3.1806003454e+01 -5.4973374516e+00 3.2867340436e+01 4.7000000000e+00 0.0000e+00 1.0000e+00
       -5  1    4    4    0  502 +5.6188279071e+00 -5.2914699124e+00 +2.5633926945e+00 9.3931817287e+00 4.7000000000e+00 0.0000e+00 1.0000e+00
</event>
<event>
10      1 +4.6527485e-10 2.40000000e+02 7.81860800e-03 1.03012300e-01
      -11 -1    0    0    0    0 +0.0000000000e+00 +0.0000000000e+00 +1.2000000000e+02 1.2000000000e+02 0.0000000000e+00 0.0000e+00 -1.0000e+00
       11 -1    0    0    0    0 -0.0000000000e+00 -0.0000000000e+00 -1.2000000000e+02 1.2000000000e+02 0.0000000000e+00 0.0000e+00 1.0000e+00
       23  2    1    2    0    0 -2.5186657736e+01 +4.7363915153e+01 -7.2557350927e+00 1.0377961985e+02 8.8542959166e+01 0.0000e+00 0.0000e+00
       25  2    1    2    0    0 +2.5186657736e+01 -4.7363915153e+01 +7.2557350927e+00 1.3622038015e+02 1.2500255233e+02 0.0000e+00 0.0000e+00
      -13  1    3    3    0    0 -4.2884795822e+01 -5.7551431054e-02 +1.8830093800e+01 4.6836753275e+01 0.0000000000e+00 0.0000e+00 -1.0000e+00
       13  1    3    3    0    0 +1.7698138086e+01 +4.7421466584e+01 -2.6085828893e+01 5.6942866574e+01 0.0000000000e+00 0.0000e+00 1.0000e+00
        5  1    4    4  501    0 -7.6216027209e-01 +1.0243034637e+01 -4.9090075993e+00 1.2316208933e+01 4.7000000000e+00 0.0000e+00 -1.0000e+00
       -5  1    4    4    0  501 -1.6844162839e+01 +2.1698094554e+01 +1.0203322685e+01 2.9677111094e+01 4.7000000000e+00 0.0000e+00 -1.0000e+00
        5  1    4    4  502    0 +1.4353625476e+01 -4.4909254346e+01 -8.5230826933e+00 4.8141464755e+01 4.7000000000e+00 0.0000e+00 1.0000e+00
       -5  1    4    4    0  502 +2.8439355372e+01 -3.4395789999e+01 +1.0484502700e+01 4.6085595369e+01 4.7000000000e+00 0.0000e+00 1.0000e+00
</event>
<event>
10      1 +4.6527485e-10 2.40000000e+02 7.81860800e-03 1.03012300e-01
      -11 -1    0    0    0    0 +0.0000000000e+00 +0.0000000000e+00 +1.2000000000e+02 1.2000000000e+02 0.0000000000e+00 0.0000e+00 -1.0000e+00
       11 -1    0    0    0    0 -0.0000000000e+00 -0.0000000000e+00 -1.2000000000e+02 1.2000000000e+02 0.0000000000e+00 0.0000e+00 1.0000e+00
       23  2    1    2    0    0 +2.7628078468e+01 -2.1567892474e+01 +3.6640672950e+01 1.0510812583e+02 9.2068965978e+01 0.0000e+00 0.0000e+00
       25  2    1    2    0    0 -2.7628078468e+01 +2.1567892474e+01 -3.6640672950e+01 1.3489187417e+02 1.2499917638e+02 0.0000e+00 0.0000e+00
      -13  1    3    3    0    0 -1.2511870840e+01 -3.7174006435e+01 +4.6594634482e+01 6.0905776646e+01 0.0000000000e+00 0.0000e+00 -1.0000e+00
       13  1    3    3    0    0 +4.0139949308e+01 +1.5606113961e+01 -9.9539615323e+00 4.4202349187e+01 0.0000000000e+00 0.0000e+00 1.0000e+00
        5  1    4    4  501    0 -1.4079337799e+01 -6.2461814141e+00 -6.0319892209e+00 1.7196436523e+01 4.7000000000e+00 0.0000e+00 1.0000e+00
       -5  1    4    4    0  502 +3.1200637915e+01 +2.0805113040e+01 +2.1728970549e+01 4.3595535276e+01 4.7000000000e+00 0.0000e+00 1.0000e+00
        5  1    4    4  502    0 -5.4822525589e+00 +2.9911291325e+00 +6.6818746504e-01 7.8446428277e+00 4.7000000000e+00 0.0000e+00 -1.0000e+00
       -5  1    4    4    0  501 -3.9267126025e+01 +4.0178317156e+00 -5.3005841743e+01 6.6255259541e+01 4.7000000000e+00 0.0000e+00 1.0000e+00
</event>
<event>
10      1 +4.6527485e-10 2.40000000e+02 7.81860800e-03 1.03012300e-01
      -11 -1    0    0    0    0 +0.0000000000e+00 +0.0000000000e+00 +1.2000000000e+02 1.2000000000e+02 0.0000000000e+00 0.0000e+00 -1.0000e+00
       11 -1    0    0    0    0 -0.0000000000e+00 -0.0000000000e+00 -1.2000000000e+02 1.2000000000e+02 0.0000000000e+00 0.0000e+00 1.0000e+00
       23  2    1    2    0    0 +3.5778557319e+01 -3.1364599602e+00 +3.7363485268e+01 1.0468190682e+02 9.0952344882e+01 0.0000e+00 0.0000e+00
       25  2    1    2    0    0 -3.5778557319e+01 +3.1364599602e+00 -3.7363485268e+01 1.3531809318e+02 1.2500005506e+02 0.0000e+00 0.0000e+00
      -11  1    3    3    0    0 +4.1410517334e+01 +2.7801991751e+01 +5.0154015528e+01 7.0733351149e+01 0.0000000000e+00 0.0000e+00 -1.0000e+00
       11  1    3    3    0    0 -5.6319600150e+00 -3.0938451711e+01 -1.2790530260e+01 3.3948555672e+01 0.0000000000e+00 0.0000e+00 1.0000e+00
        5  1    4    4  501    0 -4.1955408745e+01 +1.7116097929e+01 -1.0017767281e+01 4.6644000606e+01 4.7000000000e+00 0.0000e+00 -1.0000e+00
       -5  1    4    4    0  501 -1.5474590766e+01 +1.7006007749e+01 -2.2231209204e+01 3.2326211062e+01 4.7000000000e+00 0.0000e+00 -1.0000e+00
        5  1    4    4  502    0 +7.9171633622e-01 -2.2613677476e+01 +1.3520282372e+01 2.6774862449e+01 4.7000000000e+00 0.0000e+00 1.0000e+00
       -5  1    4    4    0  502 +2.0859725856e+01 -8.3719682416e+00 -1.8634791155e+01 2.9573019061e+01 4.7000000000e+00 0.0000e+00 1.0000e+00
</event>
<event>
10      1 +4.6527485e-10 2.40000000e+02 7.81860800e-03 1.03012300e-01
      -11 -1    0    0    0    0 +0.0000000000e+00 +0.0000000000e+00 +1.2000000000e+02 1.2000000000e+02 0.0000000000e+00 0.0000e+00 1.0000e+00
       11 -1    0    0    0    0 -0.0000000000e+00 -0.0000000000e+00 -1.2000000000e+02 1.2000000000e+02 0.0000000000e+00 0.0000e+00 -1.0000e+00
       23  2    1    2    0    0 -3.7404452610e+01 -1.0095537999e+00 -3.7215825045e+01 1.0431959710e+02 8.9985823501e+01 0.0000e+00 0.0000e+00
       25  2    1    2    0    0 +3.7404452610e+01 +1.0095537999e+00 +3.7215825045e+01 1.3568040290e+02 1.2499616724e+02 0.0000e+00 0.0000e+00
      -13  1    3    3    0    0 +8.9179690394e+00 +2.3099435590e+01 +1.6222719813e+01 2.9602208270e+01 0.0000000000e+00 0.0000e+00 1.0000e+00
       13  1    3    3    0    0 -4.6322421650e+01 -2.4108989390e+01 -5.3438544858e+01 7.4717388829e+01 0.0000000000e+00 0.0000e+00 -1.0000e+00
        5  1    4    4  501    0 +3.6594036164e+01 +2.6130773378e+01 +4.7569913713e+01 6.5627185608e+01 4.7000000000e+00 0.0000e+00 -1.0000e+00
       -5  1    4    4    0  502 -1.7447308916e+01 -2.7190612065e+01 -9.4883742670e+00 3.3997900216e+01 4.7000000000e+00 0.0000e+00 -1.0000e+00
        5  1    4    4  502    0 -3.5238198414e+00 +2.9875085064e+00 -9.9827881625e+00 1.1961963587e+01 4.7000000000e+00 0.0000e+00 -1.0000e+00
       -5  1    4    4    0  501 +2.1781545203e+01 -9.1811602050e-01 +9.1170737608e+00 2.4093353491e+01 4.7000000000e+00 0.0000e+00 -1.0000e+00
</event>
<event>
10      1 +4.6527485e-10 2.40000000e+02 7.81860800e-03 1.03012300e-01
      -11 -1    0    0    0    0 +0.0000000000e+00 +0.0000000000e+00 +1.2000000000e+02 1.2000000000e+02 0.0000000000e+00 0.0000e+00 1.0000e+00
       11 -1    0    0    0    0 -0.0000000000e+00 -0.0000000000e+00 -1.2000000000e+02 1.2000000000e+02 0.0000000000e+00 0.0000e+00 -1.0000e+00
       23  2    1    2    0    0 -1.9846403456e+01 -4.7339517360e+01 +2.9189093731e+00 1.0483887625e+02 9.1366078540e+01 0.0000e+00 0.0000e+00
       25  2    1    2    0    0 +1.9846403456e+01 +4.7339517360e+01 -2.9189093731e+00 1.3516112375e+02 1.2500039883e+02 0.0000e+00 0.0000e+00
      -13  1    3    3    0    0 -3.4111705429e+01 -2.7439326728e+01 +4.0728129369e+01 5.9793859388e+01 0.0000000000e+00 0.0000e+00 1.0000e+00
       13  1    3    3    0    0 +1.4265301973e+01 -1.9900190632e+01 -3.7809219996e+01 4.5045016864e+01 0.0000000000e+00 0.0000e+00 -1.0000e+00
        5  1    4    4  501    0 +1.3975431623e+01 +2.6226971217e+01 +7.6342219556e+00 3.1040909348e+01 4.7000000000e+00 0.0000e+00 1.0000e+00
       -5  1    4    4    0  502 -4.4571080398e+00 +1.8531488637e+00 -1.9633347497e+01 2.0757126649e+01 4.7000000000e+00 0.0000e+00 1.0000e+00
        5  1    4    4  502    0 -2.0907704965e+01 +2.6004503852e+00 -2.5666399286e+01 3.3537270632e+01 4.7000000000e+00 0.0000e+00 1.0000e+00
       -5  1    4    4    0  501 +3.1235784837e+01 +1.6658946895e+01 +3.4746615455e+01 4.9825817119e+01 4.7000000000e+00 0.0000e+00 1.0000e+00
</event>
<event>
10      1 +4.6527485e-10 2.40000000e+02 7.81860800e-03 1.03012300e-01
      -11 -1    0    0    0    0 +0.0000000000e+00 +0.0000000000e+00 +1.2000000000e+02 1.2000000000e+02 0.0000000000e+00 0.0000e+00 1.0000e+00
       11 -1    0    0    0    0 -0.0000000000e+00 -0.0000000000e+00 -1.2000000000e+02 1.2000000000e+02 0.0000000000e+00 0.0000e+00 -1.0000e+00
       23  2    1    2    0    0 -3.8334302559e+01 +1.2412655986e+01 +2.4353239589e+01 1.0642812910e+02 9.5447753268e+01 0.0000e+00 0.0000e+00
       25  2    1    2    0    0 +3.8334302559e+01 -1.2412655986e+01 -2.4353239589e+01 1.3357187090e+02 1.2499908654e+02 0.0000e+00 0.0000e+00
      -13  1    3    3    0    0 +4.9688168634e-01 +4.9401636629e+01 +6.1060302304e+00 4.9780038150e+01 0.0000000000e+00 0.0000e+00 -1.0000e+00
       13  1    3    3    0    0 -3.8831184245e+01 -3.6988980643e+01 +1.8247209359e+01 5.6648090950e+01 0.0000000000e+00 0.0000e+00 1.0000e+00
        5  1    4    4  501    0 +4.9083859428e+01 -3.7240929629e+01 +1.2198147570e+01 6.2984100376e+01 4.7000000000e+00 0.0000e+00 1.0000e+00
       -5  1    4    4    0  501 +1.2386593062e+01 -7.0529737704e+00 -4.0908437582e+00 1.5556256920e+01 4.7000000000e+00 0.0000e+00 1.0000e+00
        5  1    4    4  502    0 -1.2069397274e+01 +1.9253552738e+01 -2.9192667769e+01 3.7291708128e+01 4.7000000000e+00 0.0000e+00 1.0000e+00
       -5  1    4    4    0  502 -1.1066752658e+01 +1.2627694676e+01 -3.2678756326e+00 1.7739805477e+01 4.7000000000e+00 0.0000e+00 1.0000e+00
</event>
<event>
10      1 +4.6527485e-10 2.40000000e+02 7.81860800e-03 1.03012300e-01
      -11 -1    0    0    0    0 +0.0000000000e+00 +0.0000000000e+00 +1.2000000000e+02 1.2000000000e+02 0.0000000000e+00 0.0000e+00 -1.0000e+00
       11 -1    0    0    0    0 -0.0000000000e+00 -0.0000000000e+00 -1.2000000000e+02 1.2000000000e+02 0.0000000000e+00 0.0000e+00 1.0000e+00
       23  2    1    2    0    0 +1.4257362503e+01 -2.3847430999e+01 +4.1485934538e+01 1.0539662840e+02 9.2819147614e+01 0.0000e+00 0.0000e+00
       25  2    1    2    0    0 -1.4257362503e+01 +2.3847430999e+01 -4.1485934538e+01 1.3460337160e+02 1.2500005012e+02 0.0000e+00 0.0000e+00
      -11  1    3    3    0    0 -2.1691485788e+01 +1.3456176117e+01 -1.4305455616e+01 2.9261498454e+01 0.0000000000e+00 0.0000e+00 1.0000e+00
       11  1    3    3    0    0 +3.5948848291e+01 -3.7303607115e+01 +5.5791390155e+01 7.6135129951e+01 0.0000000000e+00 0.0000e+00 -1.0000e+00
        5  1    4    4  501    0 +3.0743232421e+01 +2.5391339822e+01 -5.4568546406e+00 4.0518313639e+01 4.7000000000e+00 0.0000e+00 -1.0000e+00
       -5  1    4    4    0  501 +1.8640541592e+01 -8.6974772658e-01 -9.2563118920e+00 2.1354052585e+01 4.7000000000e+00 0.0000e+00 -1.0000e+00
        5  1    4    4  502    0 -2.2622046074e+01 +8.9081600803e+00 -1.4082338778e+01 2.8487094447e+01 4.7000000000e+00 0.0000e+00 -1.0000e+00
       -5  1    4    4    0  502 -4.1019090442e+01 -9.5823211768e+00 -1.2690429227e+01 4.4243910924e+01 4.7000000000e+00 0.0000e+00 -1.0000e+00
</event>
<event>
10      1 +4.6527485e-10 2.40000000e+02 7.81860800e-03 1.03012300e-01
      -11 -1    0    0    0    0 +0.0000000000e+00 +0.0000000000e+00 +1.2000000000e+02 1.2000000000e+02 0.0000000000e+00 0.0000e+00 -1.0000e+00
       11 -1    0    0    0    0 -0.0000000000e+00 -0.0000000000e+00 -1.2000000000e+02 1.2000000000e+02 0.0000000000e+00 0.0000e+00 1.0000e+00
       23  2    1    2    0    0 -1.3705280435e+01 +1.2677623666e+01 -4.8722253630e+01 1.0453716426e+02 9.0584788232e+01 0.0000e+00 0.0000e+00
       25  2    1    2    0    0 +1.3705280435e+01 -1.2677623666e+01 +4.8722253630e+01 1.3546283574e+02 1.2501105957e+02 0.0000e+00 0.0000e+00
      -11  1    3    3    0    0 +1.0000894480e+01 +4.6627582997e+01 -1.1959187716e+01 4.9164738964e+01 0.0000000000e+00 0.0000e+00 -1.0000e+00
       11  1    3    3    0    0 -2.3706174915e+01 -3.3949959331e+01 -3.6763065914e+01 5.5372425296e+01 0.0000000000e+00 0.0000e+00 1.0000e+00
        5  1    4    4  501    0 -1.7888724659e-01 -4.8889820915e+00 +1.5834216423e+00 6.9664460549e+00 4.7000000000e+00 0.0000e+00 -1.0000e+00
       -5  1    4    4    0  502 +2.8220214564e+01 +3.7146481549e+01 +3.9876139095e+01 6.1550288957e+01 4.7000000000e+00 0.0000e+00 1.0000e+00
        5  1    4    4  502    0 +4.3186646456e+00 +7.9671269763e+00 +1.7504034315e-01 1.0210123197e+01 4.7000000000e+00 0.0000e+00 1.0000e+00
       -5  1    4    4    0  501 -1.8654711528e+01 -5.2902250100e+01 +7.0876525499e+00 5.6735977532e+01 4.7000000000e+00 0.0000e+00 1.0000e+00
</event>
<event>
10      1 +4.6527485e-10 2.40000000e+02 7.81860800e-03 1.03012300e-01
      -11 -1    0    0    0    0 +0.0000000000e+00 +0.0000000000e+00 +1.2000000000e+02 1.2000000000e+02 0.0000000000e+00 0.0000e+00 1.0000e+00
       11 -1    0    0    0    0 -0.0000000000e+00 -0.0000000000e+00 -1.2000000000e+02 1.2000000000e+02 0.0000000000e+00 0.0000e+00 -1.0000e+00
       23  2    1    2    0    0 -3.5107176013e+01 +4.1266437420e+01 +3.7740739854e+00 1.0370967802e+02 8.8351689373e+01 0.0000e+00 0.0000e+00
       25  2    1    2    0    0 +3.5107176013e+01 -4.1266437420e+01 -3.7740739854e+00 1.3629032198e+02 1.2500150226e+02 0.0000e+00 0.0000e+00
      -11  1    3    3    0    0 -5.9488942331e+01 +1.0754943993e+01 +1.6443098693e+01 6.2649649437e+01 0.0000000000e+00 0.0000e+00 1.0000e+00
       11  1    3    3    0    0 +2.4381766319e+01 +3.0511493426e+01 -1.2669024708e+01 4.1060028580e+01 0.0000000000e+00 0.0000e+00 -1.0000e+00
        5  1    4    4  501    0 +2.5358687186e+01 +2.4210111897e+01 -3.7550962330e+01 5.1588344670e+01 4.7000000000e+00 0.0000e+00 -1.0000e+00
       -5  1    4    4    0  501 +1.8174625204e-02 -5.9850220525e-01 -2.7977823026e+00 5.5023741257e+00 4.7000000000e+00 0.0000e+00 1.0000e+00
        5  1    4    4  502    0 +8.4638014037e+00 -6.0851940228e+01 +2.5992105222e+01 6.6875063346e+01 4.7000000000e+00 0.0000e+00 1.0000e+00
       -5  1    4    4    0  502 +1.2665127976e+00 -4.0261068833e+00 +1.0582565426e+01 1.2324539841e+01 4.7000000000e+00 0.0000e+00 1.0000e+00
</event>
<event>
10      1 +4.6527485e-10 2.40000000e+02 7.81860800e-03 1.03012300e-01
      -11 -1    0    0    0    0 +0.0000000000e+00 +0.0000000000e+00 +1.2000000000e+02 1.2000000000e+02 0.0000000000e+00 0.0000e+00 -1.0000e+00
       11 -1    0    0    0    0 -0.0000000000e+00 -0.0000000000e+00 -1.2000000000e+02 1.2000000000e+02 0.0000000000e+00 0.0000e+00 1.0000e+00
       23  2    1    2    0    0 +4.5683503216e+01 -2.3092665890e+01 -8.7925609429e+00 1.0463723224e+02 9.0837148562e+01 0.0000e+00 0.0000e+00
       25  2    1    2    0    0 -4.5683503216e+01 +2.3092665890e+01 +8.7925609429e+00 1.3536276776e+02 1.2500206432e+02 0.0000e+00 0.0000e+00
      -11  1    3    3    0    0 +1.8316985553e+01 +3.1513647241e+01 -2.1402270981e+01 4.2269127331e+01 0.0000000000e+00 0.0000e+00 1.0000e+00
       11  1    3    3    0    0 +2.7366517663e+01 -5.4606313131e+01 +1.2609710038e+01 6.2368104909e+01 0.0000000000e+00 0.0000e+00 -1.0000e+00
        5  1    4    4  501    0 -1.6463531108e+01 +1.4798125214e+01 +5.7007045121e+01 6.1334538067e+01 4.7000000000e+00 0.0000e+00 1.0000e+00
       -5  1    4    4    0  501 -7.4047305878e-01 -5.2027587839e+00 +3.8465619720e+00 8.0313783574e+00 4.7000000000e+00 0.0000e+00 1.0000e+00
        5  1    4    4  502    0 -8.1952384716e+00 +5.8426649982e-01 -3.4702144717e+01 3.5969878356e+01 4.7000000000e+00 0.0000e+00 1.0000e+00
       -5  1    4    4    0  502 -2.0284260577e+01 +1.2913032960e+01 -1.7358901433e+01 3.0026972980e+01 4.7000000000e+00 0.0000e+00 1.0000e+00
</event>
<event>
10      1 +4.6527485e-10 2.40000000e+02 7.81860800e-03 1.03012300e-01
      -11 -1    0    0    0    0 +0.0000000000e+00 +0.0000000000e+00 +1.2000000000e+02 1.2000000000e+02 0.0000000000e+00 0.0000e+00 -1.0000e+00
       11 -1    0    0    0    0 -0.0000000000e+00 -0.0000000000e+00 -1.2000000000e+02 1.2000000000e+02 0.0000000000e+00 0.0000e+00 1.0000e+00
       23  2    1    2    0    0 -8.6216659297e+00 -4.2401880657e+01 +2.7575595880e+01 1.0487581839e+02 9.1467323059e+01 0.0000e+00 0.0000e+00
       25  2    1    2    0    0 +8.6216659297e+00 +4.2401880657e+01 -2.7575595880e+01 1.3512418161e+02 1.2500351340e+02 0.0000e+00 0.0000e+00
      -11  1    3    3    0    0 -1.4385028500e+01 -5.0514080401e+01 +5.4790531040e+01 7.5898640668e+01 0.0000000000e+00 0.0000e+00 -1.0000e+00
       11  1    3    3    0    0 +5.7633625699e+00 +8.1121997440e+00 -2.7214935160e+01 2.8977177719e+01 0.0000000000e+00 0.0000e+00 1.0000e+00
        5  1    4    4  501    0 +3.2052477552e+01 +1.5847411337e+01 -2.1453324402e+01 4.1962327047e+01 4.7000000000e+00 0.0000e+00 -1.0000e+00
       -5  1    4    4    0  501 +1.5418899043e+01 +1.8619971873e+01 -3.2203429879e+01 4.0541296183e+01 4.7000000000e+00 0.0000e+00 -1.0000e+00
        5  1    4    4  502    0 -3.5694383513e+01 +1.0159060572e+01 +1.5659284884e+01 4.0553652476e+01 4.7000000000e+00 0.0000e+00 -1.0000e+00
       -5  1    4    4    0  502 -3.1553271522e+00 -2.2245631247e+00 +1.0421873517e+01 1.2066905906e+01 4.7000000000e+00 0.0000e+00 -1.0000e+00
</event>
<event>
10      1 +4.6527485e-10 2.40000000e+02 7.81860800e-03 1.03012300e-01
      -11 -1    0    0    0    0 +0.0000000000e+00 +0.0000000000e+00 +1.2000000000e+02 1.2000000000e+02 0.0000000000e+00 0.0000e+00 1.0000e+00
       11 -1    0    0    0    0 -0.0000000000e+00 -0.0000000000e+00 -1.2000000000e+02 1.2000000000e+02 0.0000000000e+00 0.0000e+00 -1.0000e+00
       23  2    1    2    0    0 +3.8561268919e+00 -5.2150065341e+01 -7.5782581890e+00 1.0428202065e+02 8.9904453753e+01 0.0000e+00 0.0000e+00
       25  2    1    2    0    0 -3.8561268919e+00 +5.2150065341e+01 +7.5782581890e+00 1.3571797935e+02 1.2500976318e+02 0.0000e+00 0.0000e+00
      -13  1    3    3    0    0 -2.9157737982e+00 -4.4872300161e+00 +3.7768843870e+01 3.8146068439e+01 0.0000000000e+00 0.0000e+00 1.0000e+00
       13  1    3    3    0    0 +6.7719006901e+00 -4.7662835325e+01 -4.5347102059e+01 6.6135952214e+01 0.0000000000e+00 0.0000e+00 -1.0000e+00
        5  1    4    4  501    0 +7.0236156668e-01 +4.4712603412e+01 +5.0032265629e+01 6.7268327016e+01 4.7000000000e+00 0.0000e+00 -1.0000e+00
       -5  1    4    4    0  501 -7.0096587923e+00 +1.6744487574e+01 +1.5967662320e-01 1.8751764640e+01 4.7000000000e+00 0.0000e+00 -1.0000e+00
        5  1    4    4  502    0 -4.9575856957e+00 +3.3365601347e+00 -2.5834350610e+01 2.6929796897e+01 4.7000000000e+00 0.0000e+00 1.0000e+00
       -5  1    4    4    0  502 +7.4087560294e+00 -1.2643585779e+01 -1.6779333453e+01 2.2768090794e+01 4.7000000000e+00 0.0000e+00 1.0000e+00
</event>
<event>
10      1 +4.6527485e-10 2.40000000e+02 7.81860800e-03 1.03012300e-01
      -11 -1    0    0    0    0 +0.0000000000e+00 +0.0000000000e+00 +1.2000000000e+02 1.2000000000e+02 0.0000000000e+00 0.0000e+00 1.0000e+00
       11 -1    0    0    0    0 -0.0000000000e+00 -0.0000000000e+00 -1.2000000000e+02 1.2000000000e+02 0.0000000000e+00 0.0000e+00 -1.0000e+00
       23  2    1    2    0    0 +2.6716158774e+01 +2.8200556413e+01 +3.3981626803e+01 1.0476372374e+02 9.1168318673e+01 0.0000e+00 0.0000e+00
       25  2    1    2    0    0 -2.6716158774e+01 -2.8200556413e+01 -3.3981626803e+01 1.3523627626e+02 1.2500029974e+02 0.0000e+00 0.0000e+00
      -11  1    3    3    0    0 +1.2517680077e+01 -1.1037830100e+01 -2.6480002592e+01 3.1300424040e+01 0.0000000000e+00 0.0000e+00 -1.0000e+00
       11  1    3    3    0    0 +1.4198478697e+01 +3.9238386513e+01 +6.0461629394e+01 7.3463299698e+01 0.0000000000e+00 0.0000e+00 1.0000e+00
        5  1    4    4  501    0 +7.6591132166e+00 +7.8801121483e-01 +3.1299232424e+01 3.2573224085e+01 4.7000000000e+00 0.0000e+00 1.0000e+00
       -5  1    4    4    0  502 -8.0204878799e+00 -8.6402251582e+00 +1.0221169489e+01 1.6295521542e+01 4.7000000000e+00 0.0000e+00 1.0000e+00
        5  1    4    4  502    0 +8.1922749213e-01 -2.9338075232e+00 -1.9880773542e+00 5.9431314837e+00 4.7000000000e+00 0.0000e+00 -1.0000e+00
       -5  1    4    4    0  501 -2.7174011603e+01 -1.7414534947e+01 -7.3513951361e+01 8.0424399151e+01 4.7000000000e+00 0.0000e+00 1.0000e+00
</event>
<event>
10      1 +4.6527485e-10 2.40000000e+02 7.81860800e-03 1.03012300e-01
      -11 -1    0    0    0    0 +0.0000000000e+00 +0.0000000000e+00 +1.2000000000e+02 1.2000000000e+02 0.0000000000e+00 0.0000e+00 1.0000e+00
       11 -1    0    0    0    0 -0.0000000000e+00 -0.0000000000e+00 -1.2000000000e+02 1.2000000000e+02 0.0000000000e+00 0.0000e+00 -1.0000e+00
       23  2    1    2    0    0 +4.6231977654e+01 +1.6325750561e+01 -1.2165963257e+01 1.0517749557e+02 9.2251661363e+01 0.0000e+00 0.0000e+00
       25  2    1    2    0    0 -4.6231977654e+01 -1.6325750561e+01 +1.2165963257e+01 1.3482250443e+02 1.2500068459e+02 0.0000e+00 0.0000e+00
      -11  1    3    3    0    0 +1.7983844381e+01 -1.7851862528e+01 +3.3184119955e+01 4.1752766035e+01 0.0000000000e+00 0.0000e+00 1.0000e+00
       11  1    3    3    0    0 +2.8248133273e+01 +3.4177613089e+01 -4.5350083211e+01 6.3424729539e+01 0.0000000000e+00 0.0000e+00 -1.0000e+00
        5  1    4    4  501    0 -3.3249668992e+01 -6.1639235404e+01 +1.1180489880e+01 7.1077627867e+01 4.7000000000e+00 0.0000e+00 -1.0000e+00
       -5  1    4    4    0  502 -7.1176760569e+00 -8.8158580807e-01 +5.8389323867e+00 1.0374084895e+01 4.7000000000e+00 0.0000e+00 1.0000e+00
        5  1    4    4  502    0 -1.3233461701e+01 +2.4150799214e+01 +3.6588584888e+00 2.8175571985e+01 4.7000000000e+00 0.0000e+00 1.0000e+00
       -5  1    4    4    0  501 +7.3688290959e+00 +2.2044271437e+01 -8.5123174986e+00 2.5195219678e+01 4.7000000000e+00 0.0000e+00 1.0000e+00
</event>
<event>
10      1 +4.6527485e-10 2.40000000e+02 7.81860800e-03 1.03012300e-01
      -11 -1    0    0    0    0 +0.0000000000e+00 +0.0000000000e+00 +1.2000000000e+02 1.2000000000e+02 0.0000000000e+00 0.0000e+00 1.0000e+00
       11 -1    0    0    0    0 -0.0000000000e+00 -0.0000000000e+00 -1.2000000000e+02 1.2000000000e+02 0.0000000000e+00 0.0000e+00 -1.0000e+00
       23  2    1    2    0    0 -9.2317643981e+00 -4.4708515818e+01 +2.1517605361e+01 1.0519774069e+02 9.2301031662e+01 0.0000e+00 0.0000e+00
       25  2    1    2    0    0 +9.2317643981e+00 +4.4708515818e+01 -2.1517605361e+01 1.3480225931e+02 1.2499825964e+02 0.0000e+00 0.0000e+00
      -13  1    3    3    0    0 +2.9920678708e+01 -5.0750918635e+01 +2.7701501640e+01 6.5102042593e+01 0.0000000000e+00 0.0000e+00 1.0000e+00
       13  1    3    3    0    0 -3.9152443106e+01 +6.0424028171e+00 -6.1838962788e+00 4.0095698100e+01 0.0000000000e+00 0.0000e+00 -1.0000e+00
        5  1    4    4  501    0 -2.2938683576e-01 +3.7809510399e+00 -4.0752075931e-03 6.0364083438e+00 4.7000000000e+00 0.0000e+00 1.0000e+00
       -5  1    4    4    0  502 +3.9161564144e+00 +5.9689449836e+01 -4.6935540032e+01 7.6178747830e+01 4.7000000000e+00 0.0000e+00 -1.0000e+00
        5  1    4    4  502    0 -6.3830227746e+00 -2.7709600181e+01 +2.2767929308e+01 3.6729191754e+01 4.7000000000e+00 0.0000e+00 1.0000e+00
       -5  1    4    4    0  501 +1.1928017594e+01 +8.9477151230e+00 +2.6540805709e+00 1.5857911380e+01 4.7000000000e+00 0.0000e+00 1.0000e+00
</event>
<event>
10      1 +4.6527485e-10 2.40000000e+02 7.81860800e-03 1.03012300e-01
      -11 -1    0    0    0    0 +0.0000000000e+00 +0.0000000000e+00 +1.2000000000e+02 1.2000000000e+02 0.0000000000e+00 0.0000e+00 1.0000e+00
       11 -1    0    0    0    0 -0.0000000000e+00 -0.0000000000e+00 -1.2000000000e+02 1.2000000000e+02 0.0000000000e+00 0.0000e+00 -1.0000e+00
       23  2    1    2    0    0 +1.7191043090e+01 -1.9508769322e+01 +4.7468092650e+01 1.0378594611e+02 8.8556076851e+01 0.0000e+00 0.0000e+00
       25  2    1    2    0    0 -1.7191043090e+01 +1.9508769322e+01 -4.7468092650e+01 1.3621405389e+02 1.2499969846e+02 0.0000e+00 0.0000e+00
      -13  1    3    3    0    0 +3.1925055705e+01 -2.8064011409e+01 +6.6068939518e+01 7.8561458026e+01 0.0000000000e+00 0.0000e+00 1.0000e+00
       13  1    3    3    0    0 -1.4734012615e+01 +8.5552420875e+00 -1.8600846868e+01 2.5224488084e+01 0.0000000000e+00 0.0000e+00 -1.0000e+00
        5  1    4    4  501    0 -1.0930609828e+01 +3.7396680487e+01 -3.0866512071e+01 4.9928163496e+01 4.7000000000e+00 0.0000e+00 1.0000e+00
       -5  1    4    4    0  502 +1.5026499092e+01 -1.3503324358e+01 -3.2448760731e+01 3.8511654297e+01 4.7000000000e+00 0.0000e+00 1.0000e+00
        5  1    4    4  502    0 -1.0631809788e+01 -1.7181125554e+01 +2.1202045809e+01 2.9662150987e+01 4.7000000000e+00 0.0000e+00 -1.0000e+00
       -5  1    4    4    0  501 -1.0655122566e+01 +1.2796538747e+01 -5.3548656564e+00 1.8112085109e+01 4.7000000000e+00 0.0000e+00 -1.0000e+00
</event>
<event>
10      1 +4.6527485e-10 2.40000000e+02 7.81860800e-03 1.03012300e-01
      -11 -1    0    0    0    0 +0.0000000000e+00 +0.0000000000e+00 +1.2000000000e+02 1.2000000000e+02 0.0000000000e+00 0.0000e+00 -1.0000e+00
       11 -1    0    0    0    0 -0.0000000000e+00 -0.0000000000e+00 -1.2000000000e+02 1.2000000000e+02 0.0000000000e+00 0.0000e+00 1.0000e+00
       23  2    1    2    0    0 -3.3064423724e+01 +3.4704541608e+01 -1.5745726616e+01 1.0520052410e+02 9.2312301668e+01 0.0000e+00 0.0000e+00
       25  2    1    2    0    0 +3.3064423724e+01 -3.4704541608e+01 +1.5745726616e+01 1.3479947590e+02 1.2500123788e+02 0.0000e+00 0.0000e+00
      -13  1    3    3    0    0 +6.5614260622e+00 -2.2470630681e+01 -2.5886131139e+01 3.4900907445e+01 0.0000000000e+00 0.0000e+00 1.0000e+00
       13  1    3    3    0    0 -3.9625849786e+01 +5.7175172289e+01 +1.0140404523e+01 7.0299616652e+01 0.0000000000e+00 0.0000e+00 -1.0000e+00
        5  1    4    4  501    0 +2.5112585564e+01 -2.0016639591e+01 +4.5591103068e+01 5.5963796272e+01 4.7000000000e+00 0.0000e+00 1.0000e+00
       -5  1    4    4    0  502 +1.3637600035e+01 +1.7887770899e+01 -1.9350526751e+01 3.0041460817e+01 4.7000000000e+00 0.0000e+00 -1.0000e+00
        5  1    4    4  502    0 +9.7916532686e+00 -4.9344401868e+00 -1.1748570352e+01 1.6743478701e+01 4.7000000000e+00 0.0000e+00 -1.0000e+00
       -5  1    4    4    0  501 -1.5477415143e+01 -2.7641232729e+01 +1.2537206515e+00 3.2050740113e+01 4.7000000000e+00 0.0000e+00 1.0000e+00
</event>
<event>
10      1 +4.6527485e-10 2.40000000e+02 7.81860800e-03 1.03012300e-01
      -11 -1    0    0    0    0 +0.0000000000e+00 +0.0000000000e+00 +1.2000000000e+02 1.2000000000e+02 0.0000000000e+00 0.0000e+00 1.0000e+00
       11 -1    0    0    0    0 -0.0000000000e+00 -0.0000000000e+00 -1.2000000000e+02 1.2000000000e+02 0.0000000000e+00 0.0000e+00 -1.0000e+00
       23  2    1    2    0    0 +4.3305425300e+01 +1.1111938595e+01 -1.7106818351e+01 1.0614870971e+02 9.4742125264e+01 0.0000e+00 0.0000e+00
       25  2    1    2    0    0 -4.3305425300e+01 -1.1111938595e+01 +1.7106818351e+01 1.3385129029e+02 1.2499875855e+02 0.0000e+00 0.0000e+00
      -11  1    3    3    0    0 +2.7038221466e+01 +3.6997520335e+01 -4.5390575397e+01 6.4499505935e+01 0.0000000000e+00 0.0000e+00 -1.0000e+00
       11  1    3    3    0    0 +1.6267203834e+01 -2.5885581740e+01 +2.8283757046e+01 4.1649203777e+01 0.0000000000e+00 0.0000e+00 1.0000e+00
        5  1    4    4  501    0 -8.9766875859e-01 -3.6744910337e+01 -1.0253111568e+01 3.8447503712e+01 4.7000000000e+00 0.0000e+00 -1.0000e+00
       -5  1    4    4    0  501 +6.1582143157e-02 -2.2817804194e+01 +8.0024954472e+00 2.4633024864e+01 4.7000000000e+00 0.0000e+00 -1.0000e+00
        5  1    4    4  502    0 -4.9822240564e+00 +1.8143287691e+01 +2.8559056115e+00 1.9602235628e+01 4.7000000000e+00 0.0000e+00 1.0000e+00
       -5  1    4    4    0  502 -3.7487114628e+01 +3.0307488245e+01 +1.6501528860e+01 5.1168526084e+01 4.7000000000e+00 0.0000e+00 1.0000e+00
</event>
<event>
10      1 +4.6527485e-10 2.40000000e+02 7.81860800e-03 1.03012300e-01
      -11 -1    0    0    0    0 +0.0000000000e+00 +0.0000000000e+00 +1.2000000000e+02 1.2000000000e+02 0.0000000000e+00 0.0000e+00 1.0000e+00
       11 -1    0    0    0    0 -0.0000000000e+00 -0.0000000000e+00 -1.2000000000e+02 1.2000000000e+02 0.0000000000e+00 0.0000e+00 -1.0000e+00
       23  2    1    2    0    0 +4.0769213099e+01 +3.2665908393e+01 +4.0271488427e-01 1.0452213401e+02 9.0529133496e+01 0.0000e+00 0.0000e+00
       25  2    1    2    0    0 -4.0769213099e+01 -3.2665908393e+01 -4.0271488427e-01 1.3547786599e+02 1.2499959874e+02 0.0000e+00 0.0000e+00
      -11  1    3    3    0    0 -2.2624483478e+01 -6.2375739114e+00 +1.6157545708e+01 2.8492821276e+01 0.0000000000e+00 0.0000e+00 1.0000e+00
       11  1    3    3    0    0 +6.3393696577e+01 +3.8903482305e+01 -1.5754830824e+01 7.6029312738e+01 0.0000000000e+00 0.0000e+00 -1.0000e+00
        5  1    4    4  501    0 -7.6035881073e+00 +6.1731167642e+00 +4.3838247915e+01 4.5164188280e+01 4.7000000000e+00 0.0000e+00 1.0000e+00
       -5  1    4    4    0  502 +1.3931170916e+01 -1.3187677627e+01 -7.7416065923e+00 2.1213553142e+01 4.7000000000e+00 0.0000e+00 -1.0000e+00
        5  1    4    4  502    0 -4.5283422491e+01 -2.4337490004e+01 -3.7490132949e+01 6.3800484643e+01 4.7000000000e+00 0.0000e+00 -1.0000e+00
       -5  1    4    4    0  501 -1.8133734162e+00 -1.3138575264e+00 +9.9077674225e-01 5.2996399217e+00 4.7000000000e+00 0.0000e+00 1.0000e+00
</event>
<event>
10      1 +4.6527485e-10 2.40000000e+02 7.81860800e-03 1.03012300e-01
      -11 -1    0    0    0    0 +0.0000000000e+00 +0.0000000000e+00 +1.2000000000e+02 1.2000000000e+02 0.0000000000e+00 0.0000e+00 -1.0000e+00
       11 -1    0    0    0    0 -0.0000000000e+00 -0.0000000000e+00 -1.2000000000e+02 1.2000000000e+02 0.0000000000e+00 0.0000e+00 1.0000e+00
       23  2    1    2    0    0 -3.6173222775e+01 -3.5905027380e+01 +1.5410232476e+01 1.0413269158e+02 8.9490050584e+01 0.0000e+00 0.0000e+00
       25  2    1    2    0    0 +3.6173222775e+01 +3.5905027380e+01 -1.5410232476e+01 1.3586730842e+02 1.2499910878e+02 0.0000e+00 0.0000e+00
      -11  1    3    3    0    0 -3.3510855175e+01 +1.4708646473e+01 -2.0565189771e+01 4.1979146323e+01 0.0000000000e+00 0.0000e+00 1.0000e+00
       11  1    3    3    0    0 -2.6623675999e+00 -5.0613673853e+01 +3.5975422247e+01 6.2153545257e+01 0.0000000000e+00 0.0000e+00 -1.0000e+00
        5  1    4    4  501    0 +9.1654005072e+00 -8.2069213589e+00 +2.5760867422e+01 2.8932169206e+01 4.7000000000e+00 0.0000e+00 1.0000e+00
       -5  1    4    4    0  501 +1.0617411722e+01 -1.7965740281e+01 +4.5507200646e+00 2.1869986480e+01 4.7000000000e+00 0.0000e+00 1.0000e+00
        5  1    4    4  502    0 +2.1317525580e+01 +4.0145837941e+01 -1.8117880181e+01 4.9157631992e+01 4.7000000000e+00 0.0000e+00 1.0000e+00
       -5  1    4    4    0  502 -4.9271150343e+00 +2.1931851079e+01 -2.7603939782e+01 3.5907520742e+01 4.7000000000e+00 0.0000e+00 1.0000e+00
</event>
<event>
10      1 +4.6527485e-10 2.40000000e+02 7.81860800e-03 1.03012300e-01
      -11 -1    0    0    0    0 +0.0000000000e+00 +0.0000000000e+00 +1.2000000000e+02 1.2000000000e+02 0.0000000000e+00 0.0000e+00 -1.0000e+00
       11 -1    0    0    0    0 -0.0000000000e+00 -0.0000000000e+00 -1.2000000000e+02 1.2000000000e+02 0.0000000000e+00 0.0000e+00 1.0000e+00
       23  2    1    2    0    0 +4.4520058794e+01 +2.8209489757e+01 +5.6215290186e+00 1.0422748165e+02 8.9743832072e+01 0.0000e+00 0.0000e+00
       25  2    1    2    0    0 -4.4520058794e+01 -2.8209489757e+01 -5.6215290186e+00 1.3577251835e+02 1.2499905681e+02 0.0000e+00 0.0000e+00
      -13  1    3    3    0    0 -1.2126621452e+01 -2.3910496443e+01 -1.9448807673e+00 2.6880278071e+01 0.0000000000e+00 0.0000e+00 1.0000e+00
       13  1    3    3    0    0 +5.6646680246e+01 +5.2119986199e+01 +7.5664097859e+00 7.7347203578e+01 0.0000000000e+00 0.0000e+00 -1.0000e+00
        5  1    4    4  501    0 +1.0028591879e+01 +9.3518362791e+00 +1.4089776915e+01 2.0214878441e+01 4.7000000000e+00 0.0000e+00 -1.0000e+00
       -5  1    4    4    0  502 -1.9316553491e+01 +5.1611228105e+00 -8.7783441957e+00 2.2336422145e+01 4.7000000000e+00 0.0000e+00 -1.0000e+00
        5  1    4    4  502    0 -5.6151423777e+01 -2.9513375712e+01 -1.9645321765e+01 6.6573646478e+01 4.7000000000e+00 0.0000e+00 -1.0000e+00
       -5  1    4    4    0  501 +2.0919326595e+01 -1.3209073134e+01 +8.7123600268e+00 2.6647571287e+01 4.7000000000e+00 0.0000e+00 -1.0000e+00
</event>
<event>
10      1 +4.6527485e-10 2.40000000e+02 7.81860800e-03 1.03012300e-01
      -11 -1    0    0    0    0 +0.0000000000e+00 +0.0000000000e+00 +1.2000000000e+02 1.2000000000e+02 0.0000000000e+00 0.0000e+00 1.0000e+00
       11 -1    0    0    0    0 -0.0000000000e+00 -0.0000000000e+00 -1.2000000000e+02 1.2000000000e+02 0.0000000000e+00 0.0000e+00 -1.0000e+00
       23  2    1    2    0    0 +4.1453817997e+01 +2.7649319384e+01 +6.4984681123e+00 1.0527519718e+02 9.2508016755e+01 0.0000e+00 0.0000e+00
       25  2    1    2    0    0 -4.1453817997e+01 -2.7649319384e+01 -6.4984681123e+00 1.3472480282e+02 1.2500255405e+02 0.0000e+00 0.0000e+00
      -13  1    3    3    0    0 +5.9663057473e+00 +4.0255905830e+01 -3.1736591291e+01 5.1607615574e+01 0.0000000000e+00 0.0000e+00 -1.0000e+00
       13  1    3    3    0    0 +3.5487512250e+01 -1.2606586447e+01 +3.8235059403e+01 5.3667581603e+01 0.0000000000e+00 0.0000e+00 1.0000e+00
        5  1    4    4  501    0 -3.8706433145e+01 -3.0936844171e-01 -8.9118389535e+00 3.9997431782e+01 4.7000000000e+00 0.0000e+00 1.0000e+00
       -5  1    4    4    0  501 -3.1283256451e+01 -1.8808879736e+01 -1.6756252515e+01 4.0438571803e+01 4.7000000000e+00 0.0000e+00 1.0000e+00
        5  1    4    4  502    0 +1.4307548187e+01 -1.1630636464e+01 +3.0011590580e+01 3.5535379678e+01 4.7000000000e+00 0.0000e+00 1.0000e+00
       -5  1    4    4    0  502 +1.4228323412e+01 +3.0995652585e+00 -1.0841967224e+01 1.8753419560e+01 4.7000000000e+00 0.0000e+00 1.0000e+00
</event>
<event>
10      1 +4.6527485e-10 2.40000000e+02 7.81860800e-03 1.03012300e-01
      -11 -1    0    0    0    0 +0.0000000000e+00 +0.0000000000e+00 +1.2000000000e+02 1.2000000000e+02 0.0000000000e+00 0.0000e+00 -1.0000e+00
       11 -1    0    0    0    0 -0.0000000000e+00 -0.0000000000e+00 -1.2000000000e+02 1.2000000000e+02 0.0000000000e+00 0.0000e+00 1.0000e+00
       23  2    1    2    0    0 -5.0651884831e+01 -8.1217311471e+00 -1.4204731643e+00 1.0487883277e+02 9.1465708681e+01 0.0000e+00 0.0000e+00
       25  2    1    2    0    0 +5.0651884831e+01 +8.1217311471e+00 +1.4204731643e+00 1.3512116723e+02 1.2499654450e+02 0.0000e+00 0.0000e+00
      -13  1    3    3    0    0 -1.5646540293e+01 -2.8342798948e+01 -3.8305619669e+01 5.0154251800e+01 0.0000000000e+00 0.0000e+00 1.0000e+00
       13  1    3    3    0    0 -3.5005344537e+01 +2.0221067801e+01 +3.6885146504e+01 5.4724580966e+01 0.0000000000e+00 0.0000e+00 -1.0000e+00
        5  1    4    4  501    0 +1.0848459323e+01 +4.0272397421e+00 -6.3853338090e+00 1.4027480796e+01 4.7000000000e+00 0.0000e+00 1.0000e+00
       -5  1    4    4    0  501 +2.5227151858e+01 -5.3176655554e+01 +6.5857822189e+00 5.9410675928e+01 4.7000000000e+00 0.0000e+00 1.0000e+00
        5  1    4    4  502    0 +1.4723690094e+01 +3.4463781414e+01 +4.9686551384e+00 3.8096152210e+01 4.7000000000e+00 0.0000e+00 1.0000e+00
       -5  1    4    4    0  502 -1.4741644411e-01 +2.2807365546e+01 -3.7486303839e+00 2.3586858301e+01 4.7000000000e+00 0.0000e+00 1.0000e+00
</event>
<event>
10      1 +4.6527485e-10 2.40000000e+02 7.81860800e-03 1.03012300e-01
      -11 -1    0    0    0    0 +0.0000000000e+00 +0.0000000000e+00 +1.2000000000e+02 1.2000000000e+02 0.0000000000e+00 0.0000e+00 1.0000e+00
       11 -1    0    0    0    0 -0.0000000000e+00 -0.0000000000e+00 -1.2000000000e+02 1.2000000000e+02 0.0000000000e+00 0.0000e+00 -1.0000e+00
       23  2    1    2    0    0 -6.3200715040e+00 +3.4209624988e+01 -3.7466240400e+01 1.0492943964e+02 9.1630924846e+01 0.0000e+00 0.0000e+00
       25  2    1    2    0    0 +6.3200715040e+00 -3.4209624988e+01 +3.7466240400e+01 1.3507056036e+02 1.2502037978e+02 0.0000e+00 0.0000e+00
      -11  1    3    3    0    0 -1.9634150436e+01 +4.8014472914e+01 +1.0805431810e+01 5.2987232700e+01 0.0000000000e+00 0.0000e+00 1.0000e+00
       11  1    3    3    0    0 +1.3314078932e+01 -1.3804847926e+01 -4.8271672210e+01 5.1942206942e+01 0.0000000000e+00 0.0000e+00 -1.0000e+00
        5  1    4    4  501    0 -4.8822570533e+01 -2.5216673965e+01 -6.9121570489e+00 5.5582298931e+01 4.7000000000e+00 0.0000e+00 -1.0000e+00
       -5  1    4    4    0  502 +1.5945485656e+01 -8.8026742514e+00 +1.9958256053e+01 2.7425673582e+01 4.7000000000e+00 0.0000e+00 1.0000e+00
        5  1    4    4  502    0 +3.8947512484e+01 -4.6252289482e+00 +2.1383264298e+01 4.4918097283e+01 4.7000000000e+00 0.0000e+00 1.0000e+00
       -5  1    4    4    0  501 +2.4964389762e-01 +4.4349521765e+00 +3.0368770977e+00 7.1444905620e+00 4.7000000000e+00 0.0000e+00 -1.0000e+00
</event>
<event>
10      1 +4.6527485e-10 2.40000000e+02 7.81860800e-03 1.03012300e-01
      -11 -1    0    0    0    0 +0.0000000000e+00 +0.0000000000e+00 +1.2000000000e+02 1.2000000000e+02 0.0000000000e+00 0.0000e+00 1.0000e+00
       11 -1    0    0    0    0 -0.0000000000e+00 -0.0000000000e+00 -1.2000000000e+02 1.2000000000e+02 0.0000000000e+00 0.0000e+00 -1.0000e+00
       23  2    1    2    0    0 -3.0503703762e+01 -2.3920833439e+00 -4.2790030270e+01 1.0438148080e+02 9.0157134149e+01 0.0000e+00 0.0000e+00
       25  2    1    2    0    0 +3.0503703762e+01 +2.3920833439e+00 +4.2790030270e+01 1.3561851920e+02 1.2500079221e+02 0.0000e+00 0.0000e+00
      -11  1    3    3    0    0 -6.2705219599e+01 -2.0470442282e+00 -3.1928412331e+01 7.0395727633e+01 0.0000000000e+00 0.0000e+00 1.0000e+00
       11  1    3    3    0    0 +3.2201515837e+01 -3.4503911576e-01 -1.0861617939e+01 3.3985753169e+01 0.0000000000e+00 0.0000e+00 -1.0000e+00
        5  1    4    4  501    0 +1.6513838276e+00 +4.5885521937e+00 +2.8348764457e+01 2.9146600591e+01 4.7000000000e+00 0.0000e+00 1.0000e+00
       -5  1    4    4    0  502 +1.8018802660e+00 +2.7732573235e+00 -1.7319359480e+01 1.8247957186e+01 4.7000000000e+00 0.0000e+00 1.0000e+00
        5  1    4    4  502    0 -1.1683740804e+01 +1.6780664185e+01 -1.3245648167e+01 2.4812047175e+01 4.7000000000e+00 0.0000e+00 1.0000e+00
       -5  1    4    4    0  501 +3.8734180473e+01 -2.1750390358e+01 +4.5006273460e+01 6.3411914246e+01 4.7000000000e+00 0.0000e+00 1.0000e+00
</event>
<event>
10      1 +4.6527485e-10 2.40000000e+02 7.81860800e-03 1.03012300e-01
      -11 -1    0    0    0    0 +0.0000000000e+00 +0.0000000000e+00 +1.2000000000e+02 1.2000000000e+02 0.0000000000e+00 0.0000e+00 1.0000e+00
       11 -1    0    0    0    0 -0.0000000000e+00 -0.0000000000e+00 -1.2000000000e+02 1.2000000000e+02 0.0000000000e+00 0.0000e+00 -1.0000e+00
       23  2    1    2    0    0 +3.7968915706e+01 +3.2496611621e+01 -7.6557651472e+00 1.0516211174e+02 9.2210577908e+01 0.0000e+00 0.0000e+00
       25  2    1    2    0    0 -3.7968915706e+01 -3.2496611621e+01 +7.6557651472e+00 1.3483788826e+02 1.2499990818e+02 0.0000e+00 0.0000e+00
      -13  1    3    3    0    0 +4.0968481801e+01 -2.4123714382e+01 +2.2819754004e+00 4.7598083033e+01 0.0000000000e+00 0.0000e+00 1.0000e+00
       13  1    3    3    0    0 -2.9995660950e+00 +5.6620326003e+01 -9.9377405476e+00 5.7564028704e+01 0.0000000000e+00 0.0000e+00 -1.0000e+00
        5  1    4    4  501    0 -2.2104956879e+00 -1.8719263253e+00 +2.3292901922e+00 5.9921608918e+00 4.7000000000e+00 0.0000e+00 -1.0000e+00
       -5  1    4    4    0  502 -1.5731321058e+01 +1.0200150988e+01 -2.9151189772e+00 1.9547518028e+01 4.7000000000e+00 0.0000e+00 -1.0000e+00
        5  1    4    4  502    0 -1.0616518072e+01 +3.2309784531e+01 -3.3961295104e+00 3.4500091711e+01 4.7000000000e+00 0.0000e+00 -1.0000e+00
       -5  1    4    4    0  501 -9.4105808876e+00 -7.3134620815e+01 +1.1637723443e+01 7.4798117632e+01 4.7000000000e+00 0.0000e+00 1.0000e+00
</event>
<event>
10      1 +4.6527485e-10 2.40000000e+02 7.81860800e-03 1.03012300e-01
      -11 -1    0    0    0    0 +0.0000000000e+00 +0.0000000000e+00 +1.2000000000e+02 1.2000000000e+02 0.0000000000e+00 0.0000e+00 1.0000e+00
       11 -1    0    0    0    0 -0.0000000000e+00 -0.0000000000e+00 -1.2000000000e+02 1.2000000000e+02 0.0000000000e+00 0.0000e+00 -1.0000e+00
       23  2    1    2    0    0 -4.1459897788e+00 +3.0027761817e+01 -4.0266899307e+01 1.0522081514e+02 9.2364176215e+01 0.0000e+00 0.0000e+00
       25  2    1    2    0    0 +4.1459897788e+00 -3.0027761817e+01 +4.0266899307e+01 1.3477918486e+02 1.2500059912e+02 0.0000e+00 0.0000e+00
      -13  1    3    3    0    0 +1.1159042524e+01 +9.7306787199e+00 +2.8384579815e+01 3.2013976786e+01 0.0000000000e+00 0.0000e+00 1.0000e+00
       13  1    3    3    0    0 -1.5305032303e+01 +2.0297083097e+01 -6.8651479122e+01 7.3206838353e+01 0.0000000000e+00 0.0000e+00 -1.0000e+00
        5  1    4    4  501    0 +2.3774987422e+01 -8.4213419202e+00 +1.5207532586e+01 2.9824957234e+01 4.7000000000e+00 0.0000e+00 -1.0000e+00
       -5  1    4    4    0  502 -1.1674893886e+01 -2.9481099381e+00 -6.0989521730e+00 1.4292715524e+01 4.7000000000e+00 0.0000e+00 1.0000e+00
        5  1    4    4  502    0 -4.1423434929e+01 -2.7764919183e+01 +1.6851390622e+01 5.2847431957e+01 4.7000000000e+00 0.0000e+00 1.0000e+00
       -5  1    4    4    0  501 +3.3469331172e+01 +9.1066092244e+00 +1.4306928272e+01 3.7814080145e+01 4.7000000000e+00 0.0000e+00 -1.0000e+00
</event>
<event>
10      1 +4.6527485e-10 2.40000000e+02 7.81860800e-03 1.03012300e-01
      -11 -1    0    0    0    0 +0.0000000000e+00 +0.0000000000e+00 +1.2000000000e+02 1.2000000000e+02 0.0000000000e+00 0.0000e+00 -1.0000e+00
       11 -1    0    0    0    0 -0.0000000000e+00 -0.0000000000e+00 -1.2000000000e+02 1.2000000000e+02 0.0000000000e+00 0.0000e+00 1.0000e+00
       23  2    1    2    0    0 -4.9518714189e+01 +9.1435949479e+00 -2.0702699312e+01 1.0366408502e+02 8.8215261605e+01 0.0000e+00 0.0000e+00
       25  2    1    2    0    0 +4.9518714189e+01 -9.1435949479e+00 +2.0702699312e+01 1.3633591498e+02 1.2499268607e+02 0.0000e+00 0.0000e+00
      -11  1    3    3    0    0 -5.1822796056e+01 -2.9800576041e-01 +2.4574907973e+01 5.7355183727e+01 0.0000000000e+00 0.0000e+00 -1.0000e+00
       11  1    3    3    0    0 +2.3040818674e+00 +9.4416007083e+00 -4.5277607285e+01 4.6308901289e+01 0.0000000000e+00 0.0000e+00 1.0000e+00
        5  1    4    4  501    0 +2.8072734028e+01 -5.4721904537e+01 -6.8342764603e+00 6.2059347134e+01 4.7000000000e+00 0.0000e+00 -1.0000e+00
       -5  1    4    4    0  502 +1.4973531095e+00 +2.0867411610e+01 -9.8842204055e-01 2.1465272226e+01 4.7000000000e+00 0.0000e+00 -1.0000e+00
        5  1    4    4  502    0 +1.0356366928e+00 +2.1198368461e+01 +2.4223672737e+01 3.2547191732e+01 4.7000000000e+00 0.0000e+00 -1.0000e+00
       -5  1    4    4    0  501 +1.8912990358e+01 +3.5125295185e+00 +4.3017250756e+00 2.0264103892e+01 4.7000000000e+00 0.0000e+00 -1.0000e+00
</event>
<event>
10      1 +4.6527485e-10 2.40000000e+02 7.81860800e-03 1.03012300e-01
      -11 -1    0    0    0    0 +0.0000000000e+00 +0.0000000000e+00 +1.2000000000e+02 1.2000000000e+02 0.0000000000e+00 0.0000e+00 1.0000e+00
       11 -1    0    0    0    0 -0.0000000000e+00 -0.0000000000e+00 -1.2000000000e+02 1.2000000000e+02 0.0000000000e+00 0.0000e+00 -1.0000e+00
       23  2    1    2    0    0 -1.9089410753e+01 +4.6705440171e+01 -1.6116452162e+01 1.0423349080e+02 8.9772361169e+01 0.0000e+00 0.0000e+00
       25  2    1    2    0    0 +1.9089410753e+01 -4.6705440171e+01 +1.6116452162e+01 1.3576650920e+02 1.2500800472e+02 0.0000e+00 0.0000e+00
      -11  1    3    3    0    0 -5.0362939260e+01 +2.8252443551e+01 -3.0344686192e+01 6.5233627812e+01 0.0000000000e+00 0.0000e+00 -1.0000e+00
       11  1    3    3    0    0 +3.1273528507e+01 +1.8452996621e+01 +1.4228234029e+01 3.8999862989e+01 0.0000000000e+00 0.0000e+00 1.0000e+00
        5  1    4    4  501    0 +2.7268624335e-01 -4.2326744959e+01 +4.8443410018e+01 6.4501795873e+01 4.7000000000e+00 0.0000e+00 1.0000e+00
       -5  1    4    4    0  501 -5.9521479679e+00 -1.6411628312e+01 +6.9079135146e+00 1.9354040364e+01 4.7000000000e+00 0.0000e+00 1.0000e+00
        5  1    4    4  502    0 +1.8037334649e+01 +1.9325547530e-01 -1.5971732903e+01 2.4547281740e+01 4.7000000000e+00 0.0000e+00 -1.0000e+00
       -5  1    4    4    0  502 +6.7315378279e+00 +1.1839677624e+01 -2.3263138468e+01 2.7363391221e+01 4.7000000000e+00 0.0000e+00 -1.0000e+00
</event>
<event>
10      1 +4.6527485e-10 2.40000000e+02 7.81860800e-03 1.03012300e-01
      -11 -1    0    0    0    0 +0.0000000000e+00 +0.0000000000e+00 +1.2000000000e+02 1.2000000000e+02 0.0000000000e+00 0.0000e+00 1.0000e+00
       11 -1    0    0    0    0 -0.0000000000e+00 -0.0000000000e+00 -1.2000000000e+02 1.2000000000e+02 0.0000000000e+00 0.0000e+00 -1.0000e+00
       23  2    1    2    0    0 +2.5160710841e+01 +4.0131309846e+01 +2.0822186968e+01 1.0471358831e+02 9.1037292948e+01 0.0000e+00 0.0000e+00
       25  2    1    2    0    0 -2.5160710841e+01 -4.0131309846e+01 -2.0822186968e+01 1.3528641169e+02 1.2500106526e+02 0.0000e+00 0.0000e+00
      -13  1    3    3    0    0 +8.9448191579e+00 +5.7422853494e+01 +4.2966636654e+01 7.2273963212e+01 0.0000000000e+00 0.0000e+00 1.0000e+00
       13  1    3    3    0    0 +1.6215891683e+01 -1.7291543647e+01 -2.2144449686e+01 3.2439625101e+01 0.0000000000e+00 0.0000e+00 -1.0000e+00
        5  1    4    4  501    0 +3.1342920304e+00 +1.6035642363e+00 +1.9439348197e+00 6.1857972304e+00 4.7000000000e+00 0.0000e+00 1.0000e+00
       -5  1    4    4    0  502 -9.1799872361e+00 -1.0210503916e+01 -1.6088806425e+01 2.1667169821e+01 4.7000000000e+00 0.0000e+00 1.0000e+00
        5  1    4    4  502    0 +1.9759400835e+01 -2.1175338399e+01 -4.3649122377e+01 5.2594341539e+01 4.7000000000e+00 0.0000e+00 1.0000e+00
       -5  1    4    4    0  501 -3.8874416470e+01 -1.0349031768e+01 +3.6971807015e+01 5.4839103096e+01 4.7000000000e+00 0.0000e+00 1.0000e+00
</event>
<event>
10      1 +4.6527485e-10 2.40000000e+02 7.81860800e-03 1.03012300e-01
      -11 -1    0    0    0    0 +0.0000000000e+00 +0.0000000000e+00 +1.2000000000e+02 1.2000000000e+02 0.0000000000e+00 0.0000e+00 -1.0000e+00
       11 -1    0    0    0    0 -0.0000000000e+00 -0.0000000000e+00 -1.2000000000e+02 1.2000000000e+02 0.0000000000e+00 0.0000e+00 1.0000e+00
       23  2    1    2    0    0 -5.7113932920e+00 +3.5474728179e+00 +4.9492273478e-01 1.1482377278e+02 1.1462569201e+02 0.0000e+00 0.0000e+00
       25  2    1    2    0    0 +5.7113932920e+00 -3.5474728179e+00 -4.9492273478e-01 1.2517622722e+02 1.2499455323e+02 0.0000e+00 0.0000e+00
      -11  1    3    3    0    0 +2.8317532316e+01 +2.9392748600e+01 -3.9134438324e+01 5.6544854494e+01 0.0000000000e+00 0.0000e+00 1.0000e+00
       11  1    3    3    0    0 -3.4028925608e+01 -2.5845275782e+01 +3.9629361059e+01 5.8278918283e+01 0.0000000000e+00 0.0000e+00 -1.0000e+00
        5  1    4    4  501    0 -3.9656920990e+00 +1.7456847287e+01 -1.3382653333e+00 1.8556648004e+01 4.7000000000e+00 0.0000e+00 1.0000e+00
       -5  1    4    4    0  501 +1.8513392150e+01 +3.6435288575e+01 -7.1705423014e+00 4.1758623293e+01 4.7000000000e+00 0.0000e+00 1.0000e+00
        5  1    4    4  502    0 +7.8447314207e+00 -1.1279273265e+01 -1.6572955141e+00 1.4615007522e+01 4.7000000000e+00 0.0000e+00 -1.0000e+00
       -5  1    4    4    0  502 -1.6681038180e+01 -4.6160335415e+01 +9.6711804141e+00 5.0245948404e+01 4.7000000000e+00 0.0000e+00 -1.0000e+00
</event>
<event>
10      1 +4.6527485e-10 2.40000000e+02 7.81860800e-03 1.03012300e-01
      -11 -1    0    0    0    0 +0.0000000000e+00 +0.0000000000e+00 +1.2000000000e+02 1.2000000000e+02 0.0000000000e+00 0.0000e+00 1.0000e+00
       11 -1    0    0    0    0 -0.0000000000e+00 -0.0000000000e+00 -1.2000000000e+02 1.2000000000e+02 0.0000000000e+00 0.0000e+00 -1.0000e+00
       23  2    1    2    0    0 +1.6887400999e+01 +5.0493401928e+01 -1.3618837688e+01 1.0345264902e+02 8.7648216748e+01 0.0000e+00 0.0000e+00
       25  2    1    2    0    0 -1.6887400999e+01 -5.0493401928e+01 +1.3618837688e+01 1.3654735098e+02 1.2499975347e+02 0.0000e+00 0.0000e+00
      -13  1    3    3    0    0 +2.8710731675e+01 -1.1152074474e+01 -2.4988309257e+01 3.9662204653e+01 0.0000000000e+00 0.0000e+00 1.0000e+00
       13  1    3    3    0    0 -1.1823330677e+01 +6.1645476403e+01 +1.1369471568e+01 6.3790444370e+01 0.0000000000e+00 0.0000e+00 -1.0000e+00
        5  1    4    4  501    0 -2.0856912407e+00 +7.6574120026e-01 +2.0616443465e+01 2.1261801633e+01 4.7000000000e+00 0.0000e+00 1.0000e+00
       -5  1    4    4    0  502 -1.1643462135e+01 -8.4965513150e+00 -8.4178823900e+00 1.7341059330e+01 4.7000000000e+00 0.0000e+00 1.0000e+00
        5  1    4    4  502    0 -2.8085767742e+01 -5.2725887337e+01 -2.0114422893e+01 6.3210043138e+01 4.7000000000e+00 0.0000e+00 1.0000e+00
       -5  1    4    4    0  501 +2.4927520119e+01 +9.9632955237e+00 +2.1534699507e+01 3.4734446877e+01 4.7000000000e+00 0.0000e+00 1.0000e+00
</event>
<event>
10      1 +4.6527485e-10 2.40000000e+02 7.81860800e-03 1.03012300e-01
      -11 -1    0    0    0    0 +0.0000000000e+00 +0.0000000000e+00 +1.2000000000e+02 1.2000000000e+02 0.0000000000e+00 0.0000e+00 1.0000e+00
       11 -1    0    0    0    0 -0.0000000000e+00 -0.0000000000e+00 -1.2000000000e+02 1.2000000000e+02 0.0000000000e+00 0.0000e+00 -1.0000e+00
       23  2    1    2    0    0 +1.1844207529e+01 +2.8973867838e+01 +4.1965879799e+01 1.0447936814e+02 9.0415889256e+01 0.0000e+00 0.0000e+00
       25  2    1    2    0    0 -1.1844207529e+01 -2.8973867838e+01 -4.1965879799e+01 1.3552063186e+02 1.2499974529e+02 0.0000e+00 0.0000e+00
      -13  1    3    3    0    0 -8.6438269007e+00 -2.6231320754e+01 +3.5883594754e+01 4.5281677359e+01 0.0000000000e+00 0.0000e+00 1.0000e+00
       13  1    3    3    0    0 +2.0488034429e+01 +5.5205188593e+01 +6.0822850449e+00 5.9197690780e+01 0.0000000000e+00 0.0000e+00 -1.0000e+00
        5  1    4    4  501    0 +4.4761964842e+01 +1.6147997787e+00 -7.5289700619e+00 4.5661980521e+01 4.7000000000e+00 0.0000e+00 1.0000e+00
       -5  1    4    4    0  501 +2.8664930130e+00 +1.0530692368e+00 -7.5711101179e+00 9.4200554897e+00 4.7000000000e+00 0.0000e+00 1.0000e+00
        5  1    4    4  502    0 -5.8892341798e+01 -3.0232509976e+01 -1.5654747155e+01 6.8187049287e+01 4.7000000000e+00 0.0000e+00 -1.0000e+00
       -5  1    4    4    0  502 -5.8032358590e-01 -1.4092268779e+00 -1.1211052464e+01 1.2251546564e+01 4.7000000000e+00 0.0000e+00 -1.0000e+00
</event>
<event>
10      1 +4.6527485e-10 2.40000000e+02 7.81860800e-03 1.03012300e-01
      -11 -1    0    0    0    0 +0.0000000000e+00 +0.0000000000e+00 +1.2000000000e+02 1.2000000000e+02 0.0000000000e+00 0.0000e+00 -1.0000e+00
       11 -1    0    0    0    0 -0.0000000000e+00 -0.0000000000e+00 -1.2000000000e+02 1.2000000000e+02 0.0000000000e+00 0.0000e+00 1.0000e+00
       23  2    1    2    0    0 +3.1451686876e+01 +3.8286290950e+01 +1.4660391850e+01 1.0474072889e+02 9.1107872972e+01 0.0000e+00 0.0000e+00
       25  2    1    2    0    0 -3.1451686876e+01 -3.8286290950e+01 -1.4660391850e+01 1.3525927111e+02 1.2500037860e+02 0.0000e+00 0.0000e+00
      -13  1    3    3    0    0 +3.2693227078e+01 -2.4526320440e+01 +4.9256507766e+00 4.1166121103e+01 0.0000000000e+00 0.0000e+00 1.0000e+00
       13  1    3    3    0    0 -1.2415402018e+00 +6.2812611390e+01 +9.7347410735e+00 6.3574607789e+01 0.0000000000e+00 0.0000e+00 -1.0000e+00
        5  1    4    4  501    0 +1.5143136678e+01 -5.3013746271e+01 +2.6766665265e+01 6.1468009985e+01 4.7000000000e+00 0.0000e+00 -1.0000e+00
       -5  1    4    4    0  502 -3.0321482927e+01 +2.0588007893e+01 -2.4623875294e+01 4.4403644337e+01 4.7000000000e+00 0.0000e+00 -1.0000e+00
        5  1    4    4  502    0 -1.6421495067e+01 -1.4045839824e+00 -1.4692292666e+01 2.2574140519e+01 4.7000000000e+00 0.0000e+00 -1.0000e+00
       -5  1    4    4    0  501 +1.4815443975e-01 -4.4559685901e+00 -2.1108891549e+00 6.8134762668e+00 4.7000000000e+00 0.0000e+00 -1.0000e+00
</event>
<event>
10      1 +4.6527485e-10 2.40000000e+02 7.81860800e-03 1.03012300e-01
      -11 -1    0    0    0    0 +0.0000000000e+00 +0.0000000000e+00 +1.2000000000e+02 1.2000000000e+02 0.0000000000e+00 0.0000e+00 1.0000e+00
       11 -1    0    0    0    0 -0.0000000000e+00 -0.0000000000e+00 -1.2000000000e+02 1.2000000000e+02 0.0000000000e+00 0.0000e+00 -1.0000e+00
       23  2    1    2    0    0 +4.3212892012e+01 +3.4407608250e+01 +8.0438929994e+00 1.0310297728e+02 8.6684959296e+01 0.0000e+00 0.0000e+00
       25  2    1    2    0    0 -4.3212892012e+01 -3.4407608250e+01 -8.0438929994e+00 1.3689702272e+02 1.2499941229e+02 0.0000e+00 0.0000e+00
      -13  1    3    3    0    0 +4.5200920830e+01 +7.1731270772e-01 +3.7168464003e+01 5.8524631547e+01 0.0000000000e+00 0.0000e+00 1.0000e+00
       13  1    3    3    0    0 -1.9880288182e+00 +3.3690295542e+01 -2.9124571003e+01 4.4578345734e+01 0.0000000000e+00 0.0000e+00 -1.0000e+00
        5  1    4    4  501    0 -2.5480791653e+01 -1.6367236303e+01 -2.2503902286e+01 3.8022003966e+01 4.7000000000e+00 0.0000e+00 -1.0000e+00
       -5  1    4    4    0  501 -4.4863423360e+01 -3.1336378792e+01 -5.3019261177e+00 5.5180574589e+01 4.7000000000e+00 0.0000e+00 -1.0000e+00
        5  1    4    4  502    0 +9.6066435145e+00 -4.8750642480e+00 +8.1363547856e-01 1.1781589610e+01 4.7000000000e+00 0.0000e+00 1.0000e+00
       -5  1    4    4    0  502 +1.7524679486e+01 +1.8171071093e+01 +1.8948299926e+01 3.1912854555e+01 4.7000000000e+00 0.0000e+00 1.0000e+00
</event>
<event>
10      1 +4.6527485e-10 2.40000000e+02 7.81860800e-03 1.03012300e-01
      -11 -1    0    0    0    0 +0.0000000000e+00 +0.0000000000e+00 +1.2000000000e+02 1.2000000000e+02 0.0000000000e+00 0.0000e+00 -1.0000e+00
       11 -1    0    0    0    0 -0.0000000000e+00 -0.0000000000e+00 -1.2000000000e+02 1.2000000000e+02 0.0000000000e+00 0.0000e+00 1.0000e+00
       23  2    1    2    0    0 +4.9433546466e+01 -5.2895484353e-01 -8.9985121960e+00 1.0528102793e+02 9.2515762505e+01 0.0000e+00 0.0000e+00
       25  2    1    2    0    0 -4.9433546466e+01 +5.2895484353e-01 +8.9985121960e+00 1.3471897207e+02 1.2499709158e+02 0.0000e+00 0.0000e+00
      -13  1    3    3    0    0 -2.5768575817e+01 +9.7661937760e+00 -1.0154832941e+01 2.9368668212e+01 0.0000000000e+00 0.0000e+00 1.0000e+00
       13  1    3    3    0    0 +7.5202122283e+01 -1.0295148620e+01 +1.1563207453e+00 7.5912359722e+01 0.0000000000e+00 0.0000e+00 -1.0000e+00
        5  1    4    4  501    0 +2.7698068618e+01 +2.7030677632e+01 +1.2409911440e+01 4.0913768347e+01 4.7000000000e+00 0.0000e+00 -1.0000e+00
       -5  1    4    4    0  501 -5.9134632509e+00 +5.6372764196e+00 -5.0844987283e+00 1.0709344535e+01 4.7000000000e+00 0.0000e+00 -1.0000e+00
        5  1    4    4  502    0 -4.5811132457e+01 -1.4839560290e+01 -1.0831449281e+01 4.9581071995e+01 4.7000000000e+00 0.0000e+00 -1.0000e+00
       -5  1    4    4    0  502 -2.5407019376e+01 -1.7299438919e+01 +1.2504548766e+01 3.3514787189e+01 4.7000000000e+00 0.0000e+00 -1.0000e+00
</event>
<event>
10      1 +4.6527485e-10 2.40000000e+02 7.81860800e-03 1.03012300e-01
      -11 -1    0    0    0    0 +0.0000000000e+00 +0.0000000000e+00 +1.2000000000e+02 1.2000000000e+02 0.0000000000e+00 0.0000e+00 -1.0000e+00
       11 -1    0    0    0    0 -0.0000000000e+00 -0.0000000000e+00 -1.2000000000e+02 1.2000000000e+02 0.0000000000e+00 0.0000e+00 1.0000e+00
       23  2    1    2    0    0 -6.7149958246e+00 +2.8792888297e+01 +4.3283901952e+01 1.0445578595e+02 9.0351499512e+01 0.0000e+00 0.0000e+00
       25  2    1    2    0    0 +6.7149958246e+00 -2.8792888297e+01 -4.3283901952e+01 1.3554421405e+02 1.2499846483e+02 0.0000e+00 0.0000e+00
      -13  1    3    3    0    0 +7.2589360207e+00 -1.0473039828e+01 +5.8662647972e+01 6.0030683675e+01 0.0000000000e+00 0.0000e+00 -1.0000e+00
       13  1    3    3    0    0 -1.3973931845e+01 +3.9265928125e+01 -1.5378746019e+01 4.4425102272e+01 0.0000000000e+00 0.0000e+00 1.0000e+00
        5  1    4    4  501    0 -2.0846572896e+01 +9.5615989561e+00 -4.3212920536e+00 2.3806875921e+01 4.7000000000e+00 0.0000e+00 -1.0000e+00
       -5  1    4    4    0  501 -7.6124752145e+00 +2.6842707087e+01 -1.0299322850e+01 3.0110575448e+01 4.7000000000e+00 0.0000e+00 -1.0000e+00
        5  1    4    4  502    0 +2.9680819104e+01 -6.1166897810e+01 -2.5393165286e+01 7.2727183732e+01 4.7000000000e+00 0.0000e+00 1.0000e+00
       -5  1    4    4    0  502 +5.4932248313e+00 -4.0302965301e+00 -3.2701217632e+00 8.8995789515e+00 4.7000000000e+00 0.0000e+00 1.0000e+00
</event>
<event>
10      1 +4.6527485e-10 2.40000000e+02 7.81860800e-03 1.03012300e-01
      -11 -1    0    0    0    0 +0.0000000000e+00 +0.0000000000e+00 +1.2000000000e+02 1.2000000000e+02 0.0000000000e+00 0.0000e+00 1.0000e+00
       11 -1    0    0    0    0 -0.0000000000e+00 -0.0000000000e+00 -1.2000000000e+02 1.2000000000e+02 0.0000000000e+00 0.0000e+00 -1.0000e+00
       23  2    1    2    0    0 -2.3147870929e+00 +5.2035381468e+01 -2.9016615467e+00 1.0455867248e+02 9.0614883914e+01 0.0000e+00 0.0000e+00
       25  2    1    2    0    0 +2.3147870929e+00 -5.2035381468e+01 +2.9016615467e+00 1.3544132752e+02 1.2499157731e+02 0.0000e+00 0.0000e+00
      -11  1    3    3    0    0 +2.2921069176e+01 +9.5548999862e+00 -3.6973776400e+01 4.4539102676e+01 0.0000000000e+00 0.0000e+00 -1.0000e+00
       11  1    3    3    0    0 -2.5235856269e+01 +4.2480481482e+01 +3.4072114853e+01 6.0019569802e+01 0.0000000000e+00 0.0000e+00 1.0000e+00
        5  1    4    4  501    0 -7.4355576365e+00 -5.8898027113e+00 -7.7351178934e+00 1.3111038943e+01 4.7000000000e+00 0.0000e+00 -1.0000e+00
       -5  1    4    4    0  502 +1.9002001540e+01 -4.4706316149e+01 +3.9222812846e+01 6.2611898339e+01 4.7000000000e+00 0.0000e+00 -1.0000e+00
        5  1    4    4  502    0 +1.2371196264e+01 -1.1690881147e+01 +4.8699514446e+00 1.8317467785e+01 4.7000000000e+00 0.0000e+00 -1.0000e+00
       -5  1    4    4    0  501 -2.1622853074e+01 +1.0251618539e+01 -3.3455984850e+01 4.1400922454e+01 4.7000000000e+00 0.0000e+00 -1.0000e+00
</event>
<event>
10      1 +4.6527485e-10 2.40000000e+02 7.81860800e-03 1.03012300e-01
      -11 -1    0    0    0    0 +0.0000000000e+00 +0.0000000000e+00 +1.2000000000e+02 1.2000000000e+02 0.0000000000e+00 0.0000e+00 1.0000e+00
       11 -1    0    0    0    0 -0.0000000000e+00 -0.0000000000e+00 -1.2000000000e+02 1.2000000000e+02 0.0000000000e+00 0.0000e+00 -1.0000e+00
       23  2    1    2    0    0 -2.0423027873e+01 +1.9888666479e+01 -4.7925661105e+01 1.0312570643e+02 8.6748966639e+01 0.0000e+00 0.0000e+00
       25  2    1    2    0    0 +2.0423027873e+01 -1.9888666479e+01 +4.7925661105e+01 1.3687429357e+02 1.2500017650e+02 0.0000e+00 0.0000e+00
      -13  1    3    3    0    0 +1.2731711768e+01 +3.9227365122e-01 -6.1143035371e+01 6.2455753439e+01 0.0000000000e+00 0.0000e+00 -1.0000e+00
       13  1    3    3    0    0 -3.3154739641e+01 +1.9496392828e+01 +1.3217374267e+01 4.0669952993e+01 0.0000000000e+00 0.0000e+00 1.0000e+00
        5  1    4    4  501    0 -2.3093822230e+01 -1.2706173507e+01 +8.4960800397e+00 2.8089942087e+01 4.7000000000e+00 0.0000e+00 -1.0000e+00
       -5  1    4    4    0  501 -2.5167722324e+01 +2.7334787682e+00 +3.9446234130e+00 2.6048727551e+01 4.7000000000e+00 0.0000e+00 -1.0000e+00
        5  1    4    4  502    0 +3.1298507040e+00 -6.6004967787e+00 +2.0617814212e+00 8.9276797536e+00 4.7000000000e+00 0.0000e+00 -1.0000e+00
       -5  1    4    4    0  502 +6.5554721723e+01 -3.3154749616e+00 +3.3423176231e+01 7.3807944177e+01 4.7000000000e+00 0.0000e+00 1.0000e+00
</event>
<event>
10      1 +4.6527485e-10 2.40000000e+02 7.81860800e-03 1.03012300e-01
      -11 -1    0    0    0    0 +0.0000000000e+00 +0.0000000000e+00 +1.2000000000e+02 1.2000000000e+02 0.0000000000e+00 0.0000e+00 1.0000e+00
       11 -1    0    0    0    0 -0.0000000000e+00 -0.0000000000e+00 -1.2000000000e+02 1.2000000000e+02 0.0000000000e+00 0.0000e+00 -1.0000e+00
       23  2    1    2    0    0 +4.7593030549e+01 -1.2761168628e+01 +1.1777020500e+01 1.0512377801e+02 9.2110621044e+01 0.0000e+00 0.0000e+00
       25  2    1    2    0    0 -4.7593030549e+01 +1.2761168628e+01 -1.1777020500e+01 1.3487622199e+02 1.2499981226e+02 0.0000e+00 0.0000e+00
      -11  1    3    3    0    0 +3.1871937237e+01 -4.1941195838e+01 +3.6230637726e+01 6.3933898689e+01 0.0000000000e+00 0.0000e+00 1.0000e+00
       11  1    3    3    0    0 +1.5721093312e+01 +2.9180027209e+01 -2.4453617226e+01 4.1189879319e+01 0.0000000000e+00 0.0000e+00 -1.0000e+00
        5  1    4    4  501    0 -7.2400831839e+00 -2.0125530693e+01 -2.1113337333e+00 2.2000080007e+01 4.7000000000e+00 0.0000e+00 1.0000e+00
       -5  1    4    4    0  501 -3.3366897597e+01 -2.9348821110e+01 +6.0347896268e+00 4.5091150369e+01 4.7000000000e+00 0.0000e+00 1.0000e+00
        5  1    4    4  502    0 -2.1707844108e+00 +4.1879793886e+01 -1.8059691209e+00 4.2237198834e+01 4.7000000000e+00 0.0000e+00 1.0000e+00
       -5  1    4    4    0  502 -4.8152653579e+00 +2.0355726546e+01 -1.3894507272e+01 2.5547792782e+01 4.7000000000e+00 0.0000e+00 1.0000e+00
</event>
<event>
10      1 +4.6527485e-10 2.40000000e+02 7.81860800e-03 1.03012300e-01
      -11 -1    0    0    0    0 +0.0000000000e+00 +0.0000000000e+00 +1.2000000000e+02 1.2000000000e+02 0.0000000000e+00 0.0000e+00 -1.0000e+00
       11 -1    0    0    0    0 -0.0000000000e+00 -0.0000000000e+00 -1.2000000000e+02 1.2000000000e+02 0.0000000000e+00 0.0000e+00 1.0000e+00
       23  2    1    2    0    0 -3.8441916544e+00 -5.2361890810e+01 -7.1865608201e+00 1.0423059456e+02 8.9754246509e+01 0.0000e+00 0.0000e+00
       25  2    1    2    0    0 +3.8441916544e+00 +5.2361890810e+01 +7.1865608201e+00 1.3576940544e+02 1.2500055752e+02 0.0000e+00 0.0000e+00
      -11  1    3    3    0    0 +1.3657169961e+01 +1.6469123115e+01 -2.3060655938e+01 3.1457020835e+01 0.0000000000e+00 0.0000e+00 1.0000e+00
       11  1    3    3    0    0 -1.7501361615e+01 -6.8831013925e+01 +1.5874095118e+01 7.2773573721e+01 0.0000000000e+00 0.0000e+00 -1.0000e+00
        5  1    4    4  501    0 -6.8832210304e+00 -4.7475791371e+00 +8.9897831720e+00 1.3146270988e+01 4.7000000000e+00 0.0000e+00 1.0000e+00
       -5  1    4    4    0  501 -1.3787255375e+01 -2.6304964139e+01 -1.5001956377e+01 3.3603396321e+01 4.7000000000e+00 0.0000e+00 1.0000e+00
        5  1    4    4  502    0 +5.5038347407e+00 +3.1466270123e+01 +1.7535906269e+00 3.2335482560e+01 4.7000000000e+00 0.0000e+00 1.0000e+00
       -5  1    4    4    0  502 +1.9010833319e+01 +5.1948163963e+01 +1.1445143399e+01 5.6684255575e+01 4.7000000000e+00 0.0000e+00 1.0000e+00
</event>
<event>
10      1 +4.6527485e-10 2.40000000e+02 7.81860800e-03 1.03012300e-01
      -11 -1    0    0    0    0 +0.0000000000e+00 +0.0000000000e+00 +1.2000000000e+02 1.2000000000e+02 0.0000000000e+00 0.0000e+00 1.0000e+00
       11 -1    0    0    0    0 -0.0000000000e+00 -0.0000000000e+00 -1.2000000000e+02 1.2000000000e+02 0.0000000000e+00 0.0000e+00 -1.0000e+00
       23  2    1    2    0    0 -2.9602631869e+00 -5.1398993768e+01 -7.3296785159e+00 1.0461520834e+02 9.0774434231e+01 0.0000e+00 0.0000e+00
       25  2    1    2    0    0 +2.9602631869e+00 +5.1398993768e+01 +7.3296785159e+00 1.3538479166e+02 1.2499879162e+02 0.0000e+00 0.0000e+00
      -11  1    3    3    0    0 +1.3634782721e+01 -2.8179702893e+01 -4.6557700937e+01 5.6103676096e+01 0.0000000000e+00 0.0000e+00 -1.0000e+00
       11  1    3    3    0    0 -1.6595045908e+01 -2.3219290875e+01 +3.9228022421e+01 4.8511532242e+01 0.0000000000e+00 0.0000e+00 1.0000e+00
        5  1    4    4  501    0 -9.5113377879e+00 -9.1496805997e+00 -1.9962719159e+01 2.4388160197e+01 4.7000000000e+00 0.0000e+00 -1.0000e+00
       -5  1    4    4    0  502 +6.9989823123e+00 +6.2045021056e+01 +3.5443184814e+01 7.1950536767e+01 4.7000000000e+00 0.0000e+00 1.0000e+00
        5  1    4    4  502    0 +8.7083116145e+00 +1.6156809658e+01 -4.3025844375e-01 1.8951314251e+01 4.7000000000e+00 0.0000e+00 1.0000e+00
       -5  1    4    4    0  501 -3.2356929521e+00 -1.7653156346e+01 -7.7205286959e+00 2.0094780447e+01 4.7000000000e+00 0.0000e+00 -1.0000e+00
</event>
<event>
10      1 +4.6527485e-10 2.40000000e+02 7.81860800e-03 1.03012300e-01
      -11 -1    0    0    0    0 +0.0000000000e+00 +0.0000000000e+00 +1.2000000000e+02 1.2000000000e+02 0.0000000000e+00 0.0000e+00 1.0000e+00
       11 -1    0    0    0    0 -0.0000000000e+00 -0.0000000000e+00 -1.2000000000e+02 1.2000000000e+02 0.0000000000e+00 0.0000e+00 -1.0000e+00
       23  2    1    2    0    0 +5.7109045846e+00 +5.5823265020e+01 -5.6877154880e+00 1.0286387984e+02 8.6021952541e+01 0.0000e+00 0.0000e+00
       25  2    1    2    0    0 -5.7109045846e+00 -5.5823265020e+01 +5.6877154880e+00 1.3713612016e+02 1.2500045599e+02 0.0000e+00 0.0000e+00
      -13  1    3    3    0    0 +3.0734999196e+01 +5.7200725525e+01 -2.6649890854e+01 7.0191024060e+01 0.0000000000e+00 0.0000e+00 -1.0000e+00
       13  1    3    3    0    0 -2.5024094611e+01 -1.3774605048e+00 +2.0962175366e+01 3.2672855777e+01 0.0000000000e+00 0.0000e+00 1.0000e+00
        5  1    4    4  501    0 +1.7399231316e+01 -1.7546615030e+01 +6.8264708787e+00 2.6063531112e+01 4.7000000000e+00 0.0000e+00 -1.0000e+00
       -5  1    4    4    0  502 +9.8103735384e+00 +1.6302751337e+01 +6.2298481938e+00 2.0565119466e+01 4.7000000000e+00 0.0000e+00 -1.0000e+00
        5  1    4    4  502    0 -1.2651575098e+01 -2.0036114981e+00 +2.2685980353e+01 2.6473014866e+01 4.7000000000e+00 0.0000e+00 -1.0000e+00
       -5  1    4    4    0  501 -2.0268934341e+01 -5.2575789829e+01 -3.0054583938e+01 6.4034454719e+01 4.7000000000e+00 0.0000e+00 -1.0000e+00
</event>
<event>
10      1 +4.6527485e-10 2.40000000e+02 7.81860800e-03 1.03012300e-01
      -11 -1    0    0    0    0 +0.0000000000e+00 +0.0000000000e+00 +1.2000000000e+02 1.2000000000e+02 0.0000000000e+00 0.0000e+00 1.0000e+00
       11 -1    0    0    0    0 -0.0000000000e+00 -0.0000000000e+00 -1.2000000000e+02 1.2000000000e+02 0.0000000000e+00 0.0000e+00 -1.0000e+00
       23  2    1    2    0    0 -3.0150737917e+01 +2.3491138382e+01 -3.9849017154e+01 1.0334219141e+02 8.7354243039e+01 0.0000e+00 0.0000e+00
       25  2    1    2    0    0 +3.0150737917e+01 -2.3491138382e+01 +3.9849017154e+01 1.3665780859e+02 1.2500604746e+02 0.0000e+00 0.0000e+00
      -13  1    3    3    0    0 -1.5132503870e+01 -2.6940552041e+01 +8.3239906361e+00 3.2001169319e+01 0.0000000000e+00 0.0000e+00 1.0000e+00
       13  1    3    3    0    0 -1.5018234047e+01 +5.0431690423e+01 -4.8173007791e+01 7.1341022087e+01 0.0000000000e+00 0.0000e+00 -1.0000e+00
        5  1    4    4  501    0 +3.4846434311e+01 -1.5018721438e+01 +5.2565584012e+01 6.5000512308e+01 4.7000000000e+00 0.0000e+00 -1.0000e+00
       -5  1    4    4    0  502 -8.7684937502e+00 +1.4296678083e+01 -3.1614960441e+01 3.6095390434e+01 4.7000000000e+00 0.0000e+00 -1.0000e+00
        5  1    4    4  502    0 +5.3510456126e-01 -1.4633308577e+00 -1.8116260442e+00 5.2725385740e+00 4.7000000000e+00 0.0000e+00 -1.0000e+00
       -5  1    4    4    0  501 +3.5376927949e+00 -2.1305764169e+01 +2.0710019628e+01 3.0289367279e+01 4.7000000000e+00 0.0000e+00 -1.0000e+00
</event>
<event>
10      1 +4.6527485e-10 2.40000000e+02 7.81860800e-03 1.03012300e-01
      -11 -1    0    0    0    0 +0.0000000000e+00 +0.0000000000e+00 +1.2000000000e+02 1.2000000000e+02 0.0000000000e+00 0.0000e+00 -1.0000e+00
       11 -1    0    0    0    0 -0.0000000000e+00 -0.0000000000e+00 -1.2000000000e+02 1.2000000000e+02 0.0000000000e+00 0.0000e+00 1.0000e+00
       23  2    1    2    0    0 +3.6571593140e+01 +3.1239935980e+01 +1.7769281845e+01 1.0490648905e+02 9.1521631552e+01 0.0000e+00 0.0000e+00
       25  2    1    2    0    0 -3.6571593140e+01 -3.1239935980e+01 -1.7769281845e+01 1.3509351095e+02 1.2498437622e+02 0.0000e+00 0.0000e+00
      -11  1    3    3    0    0 +3.3120396764e+01 +3.4675699638e+01 -3.0214000197e+01 5.6676720398e+01 0.0000000000e+00 0.0000e+00 1.0000e+00
       11  1    3    3    0    0 +3.4511963767e+00 -3.4357636587e+00 +4.7983282042e+01 4.8229768649e+01 0.0000000000e+00 0.0000e+00 -1.0000e+00
        5  1    4    4  501    0 +1.9970216036e+01 -1.1601235672e+01 -7.1333270596e+00 2.4624633044e+01 4.7000000000e+00 0.0000e+00 -1.0000e+00
       -5  1    4    4    0  501 +1.3596590764e+01 -3.1333834158e+01 +3.1912374302e+00 3.4625863741e+01 4.7000000000e+00 0.0000e+00 -1.0000e+00
        5  1    4    4  502    0 -4.8228296142e+00 +7.7034202122e-01 +2.9097651112e+00 7.3763029574e+00 4.7000000000e+00 0.0000e+00 -1.0000e+00
       -5  1    4    4    0  502 -6.5315570326e+01 +1.0924791829e+01 -1.6736957327e+01 6.8466711211e+01 4.7000000000e+00 0.0000e+00 1.0000e+00
</event>
<event>
10      1 +4.6527485e-10 2.40000000e+02 7.81860800e-03 1.03012300e-01
      -11 -1    0    0    0    0 +0.0000000000e+00 +0.0000000000e+00 +1.2000000000e+02 1.2000000000e+02 0.0000000000e+00 0.0000e+00 1.0000e+00
       11 -1    0    0    0    0 -0.0000000000e+00 -0.0000000000e+00 -1.2000000000e+02 1.2000000000e+02 0.0000000000e+00 0.0000e+00 -1.0000e+00
       23  2    1    2    0    0 -5.4087969247e+01 +3.6651788541e+00 -1.0741052618e-01 1.0375313988e+02 8.8463328816e+01 0.0000e+00 0.0000e+00
       25  2    1    2    0    0 +5.4087969247e+01 -3.6651788541e+00 +1.0741052618e-01 1.3624686012e+02 1.2499701357e+02 0.0000e+00 0.0000e+00
      -11  1    3    3    0    0 -1.9501433561e+01 +4.1787417957e+01 -1.7644147739e+01 4.9374185156e+01 0.0000000000e+00 0.0000e+00 -1.0000e+00
       11  1    3    3    0    0 -3.4586535687e+01 -3.8122239103e+01 +1.7536737213e+01 5.4378954726e+01 0.0000000000e+00 0.0000e+00 1.0000e+00
        5  1    4    4  501    0 +1.8889408025e+01 -4.8631322826e+01 +1.0170510054e+00 5.2392172011e+01 4.7000000000e+00 0.0000e+00 1.0000e+00
       -5  1    4    4    0  502 +5.8545600658e+00 +4.3536298575e+01 +1.0756742747e+01 4.5469579740e+01 4.7000000000e+00 0.0000e+00 -1.0000e+00
        5  1    4    4  502    0 +2.4739908339e+01 +6.8794258844e+00 -3.1029826844e+00 2.6288934301e+01 4.7000000000e+00 0.0000e+00 -1.0000e+00
       -5  1    4    4    0  501 +4.6040928179e+00 -5.4495804879e+00 -8.5634005423e+00 1.2096174065e+01 4.7000000000e+00 0.0000e+00 1.0000e+00
</event>
<event>
10      1 +4.6527485e-10 2.40000000e+02 7.81860800e-03 1.03012300e-01
      -11 -1    0    0    0    0 +0.0000000000e+00 +0.0000000000e+00 +1.2000000000e+02 1.2000000000e+02 0.0000000000e+00 0.0000e+00 1.0000e+00
       11 -1    0    0    0    0 -0.0000000000e+00 -0.0000000000e+00 -1.2000000000e+02 1.2000000000e+02 0.0000000000e+00 0.0000e+00 -1.0000e+00
       23  2    1    2    0    0 +3.6832451324e+01 -3.7062673523e+01 -1.1796626603e+01 1.0400619811e+02 8.9150757744e+01 0.0000e+00 0.0000e+00
       25  2    1    2    0    0 -3.6832451324e+01 +3.7062673523e+01 +1.1796626603e+01 1.3599380189e+02 1.2499953006e+02 0.0000e+00 0.0000e+00
      -11  1    3    3    0    0 +6.4190210470e+01 -3.9778273646e+01 -1.2289089017e+01 7.6509580337e+01 0.0000000000e+00 0.0000e+00 1.0000e+00
       11  1    3    3    0    0 -2.7357759146e+01 +2.7156001239e+00 +4.9246241388e-01 2.7496617770e+01 0.0000000000e+00 0.0000e+00 -1.0000e+00
        5  1    4    4  501    0 +1.2336606479e+01 -1.5854701330e+01 +1.0674457130e+01 2.3229236938e+01 4.7000000000e+00 0.0000e+00 -1.0000e+00
       -5  1    4    4    0  501 +1.6359275328e+01 -1.0642708614e+01 -3.0600008811e+00 2.0306322692e+01 4.7000000000e+00 0.0000e+00 -1.0000e+00
        5  1    4    4  502    0 -3.9693199979e+01 +3.5212626112e+01 -2.0987108039e+00 5.3310165534e+01 4.7000000000e+00 0.0000e+00 1.0000e+00
       -5  1    4    4    0  502 -2.5835133152e+01 +2.8347457355e+01 +6.2808811574e+00 3.9148076729e+01 4.7000000000e+00 0.0000e+00 1.0000e+00
</event>
<event>
10      1 +4.6527485e-10 2.40000000e+02 7.81860800e-03 1.03012300e-01
      -11 -1    0    0    0    0 +0.0000000000e+00 +0.0000000000e+00 +1.2000000000e+02 1.2000000000e+02 0.0000000000e+00 0.0000e+00 1.0000e+00
       11 -1    0    0    0    0 -0.0000000000e+00 -0.0000000000e+00 -1.2000000000e+02 1.2000000000e+02 0.0000000000e+00 0.0000e+00 -1.0000e+00
       23  2    1    2    0    0 +1.4550664982e+01 +3.7282046527e+01 +2.9499202477e+01 1.0547361710e+02 9.3020471469e+01 0.0000e+00 0.0000e+00
       25  2    1    2    0    0 -1.4550664982e+01 -3.7282046527e+01 -2.9499202477e+01 1.3452638290e+02 1.2500188761e+02 0.0000e+00 0.0000e+00
      -13  1    3    3    0    0 -2.6628052340e+01 +1.3385348569e+01 +4.6234476608e+01 5.5007704506e+01 0.0000000000e+00 0.0000e+00 1.0000e+00
       13  1    3    3    0    0 +4.1178717321e+01 +2.3896697958e+01 -1.6735274132e+01 5.0465912592e+01 0.0000000000e+00 0.0000e+00 -1.0000e+00
        5  1    4    4  501    0 -5.5099852321e+01 +7.8407407763e+00 -6.0077330009e+00 5.6175206253e+01 4.7000000000e+00 0.0000e+00 1.0000e+00
       -5  1    4    4    0  501 -1.0511204864e-01 +2.1592993435e+00 +1.3544798334e+00 5.3477320255e+00 4.7000000000e+00 0.0000e+00 -1.0000e+00
        5  1    4    4  502    0 +1.8966582678e+01 -3.8149625194e+01 -7.7953259357e+00 4.3565838306e+01 4.7000000000e+00 0.0000e+00 -1.0000e+00
       -5  1    4    4    0  502 +2.1687716710e+01 -9.1324614532e+00 -1.7050623373e+01 2.9437606318e+01 4.7000000000e+00 0.0000e+00 -1.0000e+00
</event>
<event>
10      1 +4.6527485e-10 2.40000000e+02 7.81860800e-03 1.03012300e-01
      -11 -1    0    0    0    0 +0.0000000000e+00 +0.0000000000e+00 +1.2000000000e+02 1.2000000000e+02 0.0000000000e+00 0.0000e+00 1.0000e+00
       11 -1    0    0    0    0 -0.0000000000e+00 -0.0000000000e+00 -1.2000000000e+02 1.2000000000e+02 0.0000000000e+00 0.0000e+00 -1.0000e+00
       23  2    1    2    0    0 -1.8996305516e+00 -5.0288940016e+01 -1.2195928619e+00 1.0524232912e+02 9.2422261102e+01 0.0000e+00 0.0000e+00
       25  2    1    2    0    0 +1.8996305516e+00 +5.0288940016e+01 +1.2195928619e+00 1.3475767088e+02 1.2500222546e+02 0.0000e+00 0.0000e+00
      -13  1    3    3    0    0 +3.9992077785e+01 -2.4716301270e+00 +8.4201103950e+00 4.0943540395e+01 0.0000000000e+00 0.0000e+00 -1.0000e+00
       13  1    3    3    0    0 -4.1891708336e+01 -4.7817309889e+01 -9.6397032569e+00 6.4298788723e+01 0.0000000000e+00 0.0000e+00 1.0000e+00
        5  1    4    4  501    0 -1.0878110761e+01 -5.8444037833e+00 +3.3205552979e+00 1.3623745330e+01 4.7000000000e+00 0.0000e+00 -1.0000e+00
       -5  1    4    4    0  501 -3.9914677252e+01 +2.8368420689e+00 +1.3315376943e+01 4.2433694115e+01 4.7000000000e+00 0.0000e+00 -1.0000e+00
        5  1    4    4  502    0 +7.2617971223e+00 +1.3257125558e+01 -7.2648595441e+00 1.7417039350e+01 4.7000000000e+00 0.0000e+00 1.0000e+00
       -5  1    4    4    0  502 +4.5430621443e+01 +4.0039376172e+01 -8.1514798350e+00 6.1283192088e+01 4.7000000000e+00 0.0000e+00 1.0000e+00
</event>
<event>
10      1 +4.6527485e-10 2.40000000e+02 7.81860800e-03 1.03012300e-01
      -11 -1    0    0    0    0 +0.0000000000e+00 +0.0000000000e+00 +1.2000000000e+02 1.2000000000e+02 0.0000000000e+00 0.0000e+00 1.0000e+00
       11 -1    0    0    0    0 -0.0000000000e+00 -0.0000000000e+00 -1.2000000000e+02 1.2000000000e+02 0.0000000000e+00 0.0000e+00 -1.0000e+00
       23  2    1    2    0    0 +1.6877077207e+01 -4.1353842150e+01 +2.6401194166e+01 1.0465977592e+02 9.0893727210e+01 0.0000e+00 0.0000e+00
       25  2    1    2    0    0 -1.6877077207e+01 +4.1353842150e+01 -2.6401194166e+01 1.3534022408e+02 1.2499990882e+02 0.0000e+00 0.0000e+00
      -13  1    3    3    0    0 -1.7472700823e+01 -5.8622516616e+01 +2.5303377609e+01 6.6197852283e+01 0.0000000000e+00 0.0000e+00 1.0000e+00
       13  1    3    3    0    0 +3.4349778030e+01 +1.7268674466e+01 +1.0978165568e+00 3.8461923635e+01 0.0000000000e+00 0.0000e+00 -1.0000e+00
        5  1    4    4  501    0 -7.8772559130e+00 +8.4686159041e+00 -1.1350614937e+01 1.6872909515e+01 4.7000000000e+00 0.0000e+00 -1.0000e+00
       -5  1    4    4    0  501 -4.8073505304e+01 +1.0856970742e+01 -7.3267173455e+00 5.0047042999e+01 4.7000000000e+00 0.0000e+00 -1.0000e+00
        5  1    4    4  502    0 -1.0929173318e+00 +2.4787077328e+01 -1.1425660687e+01 2.7716951364e+01 4.7000000000e+00 0.0000e+00 -1.0000e+00
       -5  1    4    4    0  502 +4.0166601342e+01 -2.7588218249e+00 +3.7017988043e+00 4.0703320204e+01 4.7000000000e+00 0.0000e+00 -1.0000e+00
</event>
<event>
10      1 +4.6527485e-10 2.40000000e+02 7.81860800e-03 1.03012300e-01
      -11 -1    0    0    0    0 +0.0000000000e+00 +0.0000000000e+00 +1.2000000000e+02 1.2000000000e+02 0.0000000000e+00 0.0000e+00 1.0000e+00
       11 -1    0    0    0    0 -0.0000000000e+00 -0.0000000000e+00 -1.2000000000e+02 1.2000000000e+02 0.0000000000e+00 0.0000e+00 -1.0000e+00
       23  2    1    2    0    0 +1.6318405618e+01 +4.4526063465e+01 -2.1480870052e+01 1.0459263292e+02 9.0715656821e+01 0.0000e+00 0.0000e+00
       25  2    1    2    0    0 -1.6318405618e+01 -4.4526063465e+01 +2.1480870052e+01 1.3540736708e+02 1.2499946637e+02 0.0000e+00 0.0000e+00
      -11  1    3    3    0    0 +1.3035538938e+01 +3.9178912571e+01 +3.1066219539e+01 5.1672260083e+01 0.0000000000e+00 0.0000e+00 1.0000e+00
       11  1    3    3    0    0 +3.2828666797e+00 +5.3471508941e+00 -5.2547089591e+01 5.2920372833e+01 0.0000000000e+00 0.0000e+00 -1.0000e+00
        5  1    4    4  501    0 -2.8596903956e+00 +2.5111359426e+01 +3.4042119162e+00 2.5931387548e+01 4.7000000000e+00 0.0000e+00 1.0000e+00
       -5  1    4    4    0  501 +6.5022391722e+00 +1.4210854993e+01 -4.0352473090e+00 1.6810732724e+01 4.7000000000e+00 0.0000e+00 1.0000e+00
        5  1    4    4  502    0 -4.6452286364e+00 -3.3338246391e+00 -7.7429223993e-01 7.4419126763e+00 4.7000000000e+00 0.0000e+00 -1.0000e+00
       -5  1    4    4    0  502 -1.5315725758e+01 -8.0514453245e+01 +2.2886197685e+01 8.5223334136e+01 4.7000000000e+00 0.0000e+00 -1.0000e+00
</event>
<event>
10      1 +4.6527485e-10 2.40000000e+02 7.81860800e-03 1.03012300e-01
      -11 -1    0    0    0    0 +0.0000000000e+00 +0.0000000000e+00 +1.2000000000e+02 1.2000000000e+02 0.0000000000e+00 0.0000e+00 1.0000e+00
       11 -1    0    0    0    0 -0.0000000000e+00 -0.0000000000e+00 -1.2000000000e+02 1.2000000000e+02 0.0000000000e+00 0.0000e+00 -1.0000e+00
       23  2    1    2    0    0 +3.4117906968e+00 +3.2791192551e+01 -4.0464382976e+01 1.0454019235e+02 9.0578048674e+01 0.0000e+00 0.0000e+00
       25  2    1    2    0    0 -3.4117906968e+00 -3.2791192551e+01 +4.0464382976e+01 1.3545980765e+02 1.2500036230e+02 0.0000e+00 0.0000e+00
      -13  1    3    3    0    0 -1.0748905151e+01 +6.0267467997e+01 -1.1720834387e+01 6.2330446970e+01 0.0000000000e+00 0.0000e+00 1.0000e+00
       13  1    3    3    0    0 +1.4160695848e+01 -2.7476275446e+01 -2.8743548589e+01 4.2209745377e+01 0.0000000000e+00 0.0000e+00 -1.0000e+00
        5  1    4    4  501    0 -2.7111796116e+01 -4.9511032032e+01 +5.9308687786e+01 8.2012207801e+01 4.7000000000e+00 0.0000e+00 -1.0000e+00
       -5  1    4    4    0  502 +4.1178885707e+00 +2.2925198963e+00 +1.7138013322e-01 6.6582298628e+00 4.7000000000e+00 0.0000e+00 1.0000e+00
        5  1    4    4  502    0 +1.9508072476e+01 +2.0540355748e+01 -2.4153924262e+01 3.7522968476e+01 4.7000000000e+00 0.0000e+00 1.0000e+00
       -5  1    4    4    0  501 +7.4044371996e-02 -6.1130361635e+00 +5.1382393192e+00 9.2664015134e+00 4.7000000000e+00 0.0000e+00 -1.0000e+00
</event>
<event>
10      1 +4.6527485e-10 2.40000000e+02 7.81860800e-03 1.03012300e-01
      -11 -1    0    0    0    0 +0.0000000000e+00 +0.0000000000e+00 +1.2000000000e+02 1.2000000000e+02 0.0000000000e+00 0.0000e+00 1.0000e+00
       11 -1    0    0    0    0 -0.0000000000e+00 -0.0000000000e+00 -1.2000000000e+02 1.2000000000e+02 0.0000000000e+00 0.0000e+00 -1.0000e+00
       23  2    1    2    0    0 -5.1485317879e+01 -1.1063989719e+01 +4.8453611528e+00 1.0428005680e+02 8.9876041834e+01 0.0000e+00 0.0000e+00
       25  2    1    2    0    0 +5.1485317879e+01 +1.1063989719e+01 -4.8453611528e+00 1.3571994320e+02 1.2499310234e+02 0.0000e+00 0.0000e+00
      -11  1    3    3    0    0 -3.2246689032e+01 +3.7175778409e-01 +4.6737856501e+01 5.6783927195e+01 0.0000000000e+00 0.0000e+00 1.0000e+00
       11  1    3    3    0    0 -1.9238628847e+01 -1.1435747503e+01 -4.1892495348e+01 4.7496129604e+01 0.0000000000e+00 0.0000e+00 -1.0000e+00
        5  1    4    4  501    0 -3.5016196848e+00 +3.9352672518e+00 +2.8354769871e+00 7.6077328097e+00 4.7000000000e+00 0.0000e+00 1.0000e+00
       -5  1    4    4    0  501 -4.6650376069e-02 +2.6408505684e+01 +4.0503576940e+01 4.8580254154e+01 4.7000000000e+00 0.0000e+00 -1.0000e+00
        5  1    4    4  502    0 +1.7834174909e+01 +4.3221294966e-01 -5.1659461602e+00 1.9157807871e+01 4.7000000000e+00 0.0000e+00 -1.0000e+00
       -5  1    4    4    0  502 +3.7199413031e+01 -1.9711996166e+01 -4.3018468920e+01 6.0374148366e+01 4.7000000000e+00 0.0000e+00 -1.0000e+00
</event>
<event>
10      1 +4.6527485e-10 2.40000000e+02 7.81860800e-03 1.03012300e-01
      -11 -1    0    0    0    0 +0.0000000000e+00 +0.0000000000e+00 +1.2000000000e+02 1.2000000000e+02 0.0000000000e+00 0.0000e+00 1.0000e+00
       11 -1    0    0    0    0 -0.0000000000e+00 -0.0000000000e+00 -1.2000000000e+02 1.2000000000e+02 0.0000000000e+00 0.0000e+00 -1.0000e+00
       23  2    1    2    0    0 +3.6484959603e+01 -2.7103847339e+01 +6.2218477617e+00 1.0684732849e+02 9.6498027953e+01 0.0000e+00 0.0000e+00
       25  2    1    2    0    0 -3.6484959603e+01 +2.7103847339e+01 -6.2218477617e+00 1.3315267151e+02 1.2500060689e+02 0.0000e+00 0.0000e+00
      -13  1    3    3    0    0 +7.7401646216e+00 +2.8250605460e+01 -2.3690334476e+01 3.7672785998e+01 0.0000000000e+00 0.0000e+00 1.0000e+00
       13  1    3    3    0    0 +2.8744794981e+01 -5.5354452799e+01 +2.9912182238e+01 6.9174542495e+01 0.0000000000e+00 0.0000e+00 -1.0000e+00
        5  1    4    4  501    0 -5.3445813745e+00 -1.0071923770e+01 -8.2199310473e+00 1.4821115508e+01 4.7000000000e+00 0.0000e+00 1.0000e+00
       -5  1    4    4    0  501 -2.4502488890e+01 -1.5683792465e+01 +3.4059399587e+01 4.5038716768e+01 4.7000000000e+00 0.0000e+00 -1.0000e+00
        5  1    4    4  502    0 -9.4602815657e+00 +7.4857077935e+00 +5.5660281974e+00 1.4092672506e+01 4.7000000000e+00 0.0000e+00 -1.0000e+00
       -5  1    4    4    0  502 +2.8223922275e+00 +4.5373855780e+01 -3.7627344499e+01 5.9200166725e+01 4.7000000000e+00 0.0000e+00 1.0000e+00
</event>
<event>
10      1 +4.6527485e-10 2.40000000e+02 7.81860800e-03 1.03012300e-01
      -11 -1    0    0    0    0 +0.0000000000e+00 +0.0000000000e+00 +1.2000000000e+02 1.2000000000e+02 0.0000000000e+00 0.0000e+00 -1.0000e+00
       11 -1    0    0    0    0 -0.0000000000e+00 -0.0000000000e+00 -1.2000000000e+02 1.2000000000e+02 0.0000000000e+00 0.0000e+00 1.0000e+00
       23  2    1    2    0    0 -1.5243150135e+01 +2.0681349579e+01 -4.1544938357e+01 1.0579576931e+02 9.3843971857e+01 0.0000e+00 0.0000e+00
       25  2    1    2    0    0 +1.5243150135e+01 -2.0681349579e+01 +4.1544938357e+01 1.3420423069e+02 1.2499888714e+02 0.0000e+00 0.0000e+00
      -13  1    3    3    0    0 +3.9755344316e+01 +9.3321674582e+00 -2.1638213293e+01 4.6214597539e+01 0.0000000000e+00 0.0000e+00 1.0000e+00
       13  1    3    3    0    0 -5.4998494451e+01 +1.1349182121e+01 -1.9906725063e+01 5.9581171770e+01 0.0000000000e+00 0.0000e+00 -1.0000e+00
        5  1    4    4  501    0 -1.2089216271e+00 +1.8495765771e+01 +3.1613711771e+00 1.9381411473e+01 4.7000000000e+00 0.0000e+00 -1.0000e+00
       -5  1    4    4    0  501 +2.6102422192e+01 +2.1694987542e+01 +5.3646642087e+00 3.4682539567e+01 4.7000000000e+00 0.0000e+00 -1.0000e+00
        5  1    4    4  502    0 -1.1047830085e+01 -7.6583996536e-01 +1.5870906363e+00 1.2134657685e+01 4.7000000000e+00 0.0000e+00 -1.0000e+00
       -5  1    4    4    0  502 +1.3974796561e+00 -6.0106262927e+01 +3.1431812335e+01 6.8005621967e+01 4.7000000000e+00 0.0000e+00 -1.0000e+00
</event>
<event>
10      1 +4.6527485e-10 2.40000000e+02 7.81860800e-03 1.03012300e-01
      -11 -1    0    0    0    0 +0.0000000000e+00 +0.0000000000e+00 +1.2000000000e+02 1.2000000000e+02 0.0000000000e+00 0.0000e+00 -1.0000e+00
       11 -1    0    0    0    0 -0.0000000000e+00 -0.0000000000e+00 -1.2000000000e+02 1.2000000000e+02 0.0000000000e+00 0.0000e+00 1.0000e+00
       23  2    1    2    0    0 +3.1014156995e+01 -1.9024941220e+01 +3.7681848796e+01 1.0446847835e+02 9.0387581651e+01 0.0000e+00 0.0000e+00
       25  2    1    2    0    0 -3.1014156995e+01 +1.9024941220e+01 -3.7681848796e+01 1.3553152165e+02 1.2500018124e+02 0.0000e+00 0.0000e+00
      -11  1    3    3    0    0 -9.2396282687e+00 -4.0178188406e+01 +4.1922801301e+01 5.8797779066e+01 0.0000000000e+00 0.0000e+00 -1.0000e+00
       11  1    3    3    0    0 +4.0253785263e+01 +2.1153247187e+01 -4.2409525051e+00 4.5670699280e+01 0.0000000000e+00 0.0000e+00 1.0000e+00
        5  1    4    4  501    0 +3.8958076710e+01 +2.8973519002e+01 -1.5025503650e+01 5.1039713011e+01 4.7000000000e+00 0.0000e+00 -1.0000e+00
       -5  1    4    4    0  501 +2.1209700249e+00 +5.1269784857e-01 -4.8520850014e+00 7.0988803195e+00 4.7000000000e+00 0.0000e+00 -1.0000e+00
        5  1    4    4  502    0 -5.2332125706e+01 -6.6047967094e-01 -9.7440807227e+00 5.3442723765e+01 4.7000000000e+00 0.0000e+00 1.0000e+00
       -5  1    4    4    0  502 -1.9761078024e+01 -9.8007959598e+00 -8.0601794223e+00 2.3950204559e+01 4.7000000000e+00 0.0000e+00 1.0000e+00
</event>
<event>
10      1 +4.6527485e-10 2.40000000e+02 7.81860800e-03 1.03012300e-01
      -11 -1    0    0    0    0 +0.0000000000e+00 +0.0000000000e+00 +1.2000000000e+02 1.2000000000e+02 0.0000000000e+00 0.0000e+00 1.0000e+00
       11 -1    0    0    0    0 -0.0000000000e+00 -0.0000000000e+00 -1.2000000000e+02 1.2000000000e+02 0.0000000000e+00 0.0000e+00 -1.0000e+00
       23  2    1    2    0    0 +2.9867512902e+01 +3.8881203153e+01 +1.3425414338e+01 1.0505929206e+02 9.1942355921e+01 0.0000e+00 0.0000e+00
       25  2    1    2    0    0 -2.9867512902e+01 -3.8881203153e+01 -1.3425414338e+01 1.3494070794e+02 1.2499974649e+02 0.0000e+00 0.0000e+00
      -13  1    3    3    0    0 +5.7810359741e+01 +1.9470292883e+00 +5.9843406850e+00 5.8151878300e+01 0.0000000000e+00 0.0000e+00 -1.0000e+00
       13  1    3    3    0    0 -2.7942846838e+01 +3.6934173864e+01 +7.4410736526e+00 4.6907413759e+01 0.0000000000e+00 0.0000e+00 1.0000e+00
        5  1    4    4  501    0 +1.9602393075e+00 -2.3632630304e+01 -1.9472953099e+01 3.1042384825e+01 4.7000000000e+00 0.0000e+00 -1.0000e+00
       -5  1    4    4    0  501 -3.1416520740e+01 -3.5759928691e+01 -3.0267971407e+01 5.6603978380e+01 4.7000000000e+00 0.0000e+00 -1.0000e+00
        5  1    4    4  502    0 +7.6904983217e+00 +1.7814270626e+01 +2.8520382415e+01 3.4813707293e+01 4.7000000000e+00 0.0000e+00 -1.0000e+00
       -5  1    4    4    0  502 -8.1017297919e+00 +2.6970852164e+00 +7.7951277532e+00 1.2480637443e+01 4.7000000000e+00 0.0000e+00 -1.0000e+00
</event>
<event>
10      1 +4.6527485e-10 2.40000000e+02 7.81860800e-03 1.03012300e-01
      -11 -1    0    0    0    0 +0.0000000000e+00 +0.0000000000e+00 +1.2000000000e+02 1.2000000000e+02 0.0000000000e+00 0.0000e+00 1.0000e+00
       11 -1    0    0    0    0 -0.0000000000e+00 -0.0000000000e+00 -1.2000000000e+02 1.2000000000e+02 0.0000000000e+00 0.0000e+00 -1.0000e+00
       23  2    1    2    0    0 -4.9877821868e+01 -2.2622478463e+01 -5.2092205745e+00 1.0342612385e+02 8.7579983273e+01 0.0000e+00 0.0000e+00
       25  2    1    2    0    0 +4.9877821868e+01 +2.2622478463e+01 +5.2092205745e+00 1.3657387615e+02 1.2500285605e+02 0.0000e+00 0.0000e+00
      -11  1    3    3    0    0 -4.4961606802e+01 -5.2558015228e+01 -1.6413720818e+01 7.1086575963e+01 0.0000000000e+00 0.0000e+00 -1.0000e+00
       11  1    3    3    0    0 -4.9162150657e+00 +2.9935536765e+01 +1.1204500244e+01 3.2339547890e+01 0.0000000000e+00 0.0000e+00 1.0000e+00
        5  1    4    4  501    0 +1.6233681195e+00 -9.3846916286e+00 +3.7761620115e+01 3.9226747440e+01 4.7000000000e+00 0.0000e+00 -1.0000e+00
       -5  1    4    4    0  501 +1.0365732892e+00 -1.4666876505e+01 +9.4022408523e+00 1.8074398570e+01 4.7000000000e+00 0.0000e+00 -1.0000e+00
        5  1    4    4  502    0 +2.3698722899e+01 +1.9822746666e+01 -1.8981503487e+01 3.6564439378e+01 4.7000000000e+00 0.0000e+00 -1.0000e+00
       -5  1    4    4    0  502 +2.3519157560e+01 +2.6851299932e+01 -2.2973136905e+01 4.2708290760e+01 4.7000000000e+00 0.0000e+00 -1.0000e+00
</event>
<event>
10      1 +4.6527485e-10 2.40000000e+02 7.81860800e-03 1.03012300e-01
      -11 -1    0    0    0    0 +0.0000000000e+00 +0.0000000000e+00 +1.2000000000e+02 1.2000000000e+02 0.0000000000e+00 0.0000e+00 1.0000e+00
       11 -1    0    0    0    0 -0.0000000000e+00 -0.0000000000e+00 -1.2000000000e+02 1.2000000000e+02 0.0000000000e+00 0.0000e+00 -1.0000e+00
       23  2    1    2    0    0 +3.1060068325e+01 +4.2410865206e+01 +5.6905920148e+00 1.0427643338e+02 8.9876484070e+01 0.0000e+00 0.0000e+00
       25  2    1    2    0    0 -3.1060068325e+01 -4.2410865206e+01 -5.6905920148e+00 1.3572356662e+02 1.2500037747e+02 0.0000e+00 0.0000e+00
      -13  1    3    3    0    0 +5.5219192257e+01 +4.2492484200e+01 +2.4288132393e+01 7.3788100546e+01 0.0000000000e+00 0.0000e+00 1.0000e+00
       13  1    3    3    0    0 -2.4159123932e+01 -8.1618994698e-02 -1.8597540378e+01 3.0488332833e+01 0.0000000000e+00 0.0000e+00 -1.0000e+00
        5  1    4    4  501    0 -1.3890467665e+01 -2.5875138862e+01 +6.6632927338e+00 3.0478802029e+01 4.7000000000e+00 0.0000e+00 1.0000e+00
       -5  1    4    4    0  501 -2.6783969960e+01 -3.5706968384e+01 +1.8760923643e+01 4.8645975105e+01 4.7000000000e+00 0.0000e+00 1.0000e+00
        5  1    4    4  502    0 -4.7313906575e+00 +2.1888331336e+00 -3.3056891086e+01 3.3793861814e+01 4.7000000000e+00 0.0000e+00 -1.0000e+00
       -5  1    4    4    0  502 +1.4345759958e+01 +1.6982408906e+01 +1.9420826937e+00 2.2804927674e+01 4.7000000000e+00 0.0000e+00 -1.0000e+00
</event>
<event>
10      1 +4.6527485e-10 2.40000000e+02 7.81860800e-03 1.03012300e-01
      -11 -1    0    0    0    0 +0.0000000000e+00 +0.0000000000e+00 +1.2000000000e+02 1.2000000000e+02 0.0000000000e+00 0.0000e+00 1.0000e+00
       11 -1    0    0    0    0 -0.0000000000e+00 -0.0000000000e+00 -1.2000000000e+02 1.2000000000e+02 0.0000000000e+00 0.0000e+00 -1.0000e+00
       23  2    1    2    0    0 -3.5659251695e+00 +3.7497264461e+01 +3.5811628756e+01 1.0462617080e+02 9.0804197029e+01 0.0000e+00 0.0000e+00
       25  2    1    2    0    0 +3.5659251695e+00 -3.7497264461e+01 -3.5811628756e+01 1.3537382920e+02 1.2499936085e+02 0.0000e+00 0.0000e+00
      -13  1    3    3    0    0 +3.7821081926e+01 +2.9146712998e+01 +3.9876199371e+01 6.2209938056e+01 0.0000000000e+00 0.0000e+00 -1.0000e+00
       13  1    3    3    0    0 -4.1387007096e+01 +8.3505514625e+00 -4.0645706147e+00 4.2416232746e+01 0.0000000000e+00 0.0000e+00 1.0000e+00
        5  1    4    4  501    0 -2.5855784850e+00 -2.8858331446e+00 -3.1213719044e+01 3.1802507851e+01 4.7000000000e+00 0.0000e+00 1.0000e+00
       -5  1    4    4    0  502 -4.0307333181e+00 -2.5591549517e+01 +1.2060034285e+01 2.8960466928e+01 4.7000000000e+00 0.0000e+00 -1.0000e+00
        5  1    4    4  502    0 +1.7478959452e+01 -3.0482619323e+01 +1.2310430162e+01 3.7527866914e+01 4.7000000000e+00 0.0000e+00 -1.0000e+00
       -5  1    4    4    0  501 -7.2967224795e+00 +2.1462737523e+01 -2.8968374159e+01 3.7082987506e+01 4.7000000000e+00 0.0000e+00 1.0000e+00
</event>
<event>
10      1 +4.6527485e-10 2.40000000e+02 7.81860800e-03 1.03012300e-01
      -11 -1    0    0    0    0 +0.0000000000e+00 +0.0000000000e+00 +1.2000000000e+02 1.2000000000e+02 0.0000000000e+00 0.0000e+00 -1.0000e+00
       11 -1    0    0    0    0 -0.0000000000e+00 -0.0000000000e+00 -1.2000000000e+02 1.2000000000e+02 0.0000000000e+00 0.0000e+00 1.0000e+00
       23  2    1    2    0    0 -8.9612298656e+00 +7.3980124408e+00 +5.0566281716e+01 1.0467904919e+02 9.0916006649e+01 0.0000e+00 0.0000e+00
       25  2    1    2    0    0 +8.9612298656e+00 -7.3980124408e+00 -5.0566281716e+01 1.3532095081e+02 1.2497910486e+02 0.0000e+00 0.0000e+00
      -11  1    3    3    0    0 -1.6408667252e+00 +4.9166005813e+01 +2.5304190241e+01 5.5319893483e+01 0.0000000000e+00 0.0000e+00 -1.0000e+00
       11  1    3    3    0    0 -7.3203631404e+00 -4.1767993372e+01 +2.5262091476e+01 4.9359155712e+01 0.0000000000e+00 0.0000e+00 1.0000e+00
        5  1    4    4  501    0 +2.2970435234e+00 +7.4874002554e+00 -9.7699366532e+00 1.3374574152e+01 4.7000000000e+00 0.0000e+00 -1.0000e+00
       -5  1    4    4    0  501 +3.6197989498e+01 +2.7789803574e+01 -6.8043997652e+00 4.6378416128e+01 4.7000000000e+00 0.0000e+00 -1.0000e+00
        5  1    4    4  502    0 -3.2519250675e+00 -3.9069390592e+01 -2.6673683116e+01 4.7650473963e+01 4.7000000000e+00 0.0000e+00 -1.0000e+00
       -5  1    4    4    0  502 -2.6281878088e+01 -3.6058256775e+00 -7.3182621818e+00 2.7917486563e+01 4.7000000000e+00 0.0000e+00 -1.0000e+00
</event>
<event>
10      1 +4.6527485e-10 2.40000000e+02 7.81860800e-03 1.03012300e-01
      -11 -1    0    0    0    0 +0.0000000000e+00 +0.0000000000e+00 +1.2000000000e+02 1.2000000000e+02 0.0000000000e+00 0.0000e+00 -1.0000e+00
       11 -1    0    0    0    0 -0.0000000000e+00 -0.0000000000e+00 -1.2000000000e+02 1.2000000000e+02 0.0000000000e+00 0.0000e+00 1.0000e+00
       23  2    1    2    0    0 +2.1396698785e+01 +9.1320806999e+00 -4.4541555277e+01 1.0527937504e+02 9.2512610197e+01 0.0000e+00 0.0000e+00
       25  2    1    2    0    0 -2.1396698785e+01 -9.1320806999e+00 +4.4541555277e+01 1.3472062496e+02 1.2499793209e+02 0.0000e+00 0.0000e+00
      -13  1    3    3    0    0 +3.7637118143e+01 +3.8268860697e+01 -5.5431314191e+00 5.3960955024e+01 0.0000000000e+00 0.0000e+00 -1.0000e+00
       13  1    3    3    0    0 -1.6240419358e+01 -2.9136779997e+01 -3.8998423858e+01 5.1318420016e+01 0.0000000000e+00 0.0000e+00 1.0000e+00
        5  1    4    4  501    0 -7.2960606388e+00 -3.3763509927e+00 +1.0169018536e+01 1.3788806506e+01 4.7000000000e+00 0.0000e+00 -1.0000e+00
       -5  1    4    4    0  502 +5.6921380222e+00 +4.5692742892e+00 +1.4971750265e+00 8.8096671818e+00 4.7000000000e+00 0.0000e+00 -1.0000e+00
        5  1    4    4  502    0 +2.6458787304e+01 -1.6446414439e+01 -2.3125228215e+01 3.9082197398e+01 4.7000000000e+00 0.0000e+00 -1.0000e+00
       -5  1    4    4    0  501 -4.6251563472e+01 +6.1214104421e+00 +5.6000589930e+01 7.3039953874e+01 4.7000000000e+00 0.0000e+00 -1.0000e+00
</event>
<event>
10      1 +4.6527485e-10 2.40000000e+02 7.81860800e-03 1.03012300e-01
      -11 -1    0    0    0    0 +0.0000000000e+00 +0.0000000000e+00 +1.2000000000e+02 1.2000000000e+02 0.0000000000e+00 0.0000e+00 -1.0000e+00
       11 -1    0    0    0    0 -0.0000000000e+00 -0.0000000000e+00 -1.2000000000e+02 1.2000000000e+02 0.0000000000e+00 0.0000e+00 1.0000e+00
       23  2    1    2    0    0 +4.5130841305e+01 -1.8888105691e+01 +1.0238847294e+01 1.0537714691e+02 9.2768290511e+01 0.0000e+00 0.0000e+00
       25  2    1    2    0    0 -4.5130841305e+01 +1.8888105691e+01 -1.0238847294e+01 1.3462285309e+02 1.2499970082e+02 0.0000e+00 0.0000e+00
      -13  1    3    3    0    0 +5.9143408420e+01 -1.6760637195e+01 -2.5788153189e+01 6.6662512431e+01 0.0000000000e+00 0.0000e+00 1.0000e+00
       13  1    3    3    0    0 -1.4012567115e+01 -2.1274684960e+00 +3.6027000483e+01 3.8714634483e+01 0.0000000000e+00 0.0000e+00 -1.0000e+00
        5  1    4    4  501    0 -1.7275545589e+01 -5.3245165740e-01 +2.2687850401e+01 2.8905994810e+01 4.7000000000e+00 0.0000e+00 -1.0000e+00
       -5  1    4    4    0  502 +8.8349391326e-01 +2.6068552056e+01 -3.9074243966e+01 4.7214791213e+01 4.7000000000e+00 0.0000e+00 1.0000e+00
        5  1    4    4  502    0 -8.9845689904e+00 +1.6747432046e+01 -1.1643315622e+01 2.2778405536e+01 4.7000000000e+00 0.0000e+00 1.0000e+00
       -5  1    4    4    0  501 -1.9754220638e+01 -2.3395426754e+01 +1.7790861893e+01 3.5723661527e+01 4.7000000000e+00 0.0000e+00 -1.0000e+00
</event>
<event>
10      1 +4.6527485e-10 2.40000000e+02 7.81860800e-03 1.03012300e-01
      -11 -1    0    0    0    0 +0.0000000000e+00 +0.0000000000e+00 +1.2000000000e+02 1.2000000000e+02 0.0000000000e+00 0.0000e+00 1.0000e+00
       11 -1    0    0    0    0 -0.0000000000e+00 -0.0000000000e+00 -1.2000000000e+02 1.2000000000e+02 0.0000000000e+00 0.0000e+00 -1.0000e+00
       23  2    1    2    0    0 +4.9051043870e+01 +1.8239513918e+00 -2.5275790075e+00 1.0568096868e+02 9.3556115682e+01 0.0000e+00 0.0000e+00
       25  2    1    2    0    0 -4.9051043870e+01 -1.8239513918e+00 +2.5275790075e+00 1.3431903132e+02 1.2500352722e+02 0.0000e+00 0.0000e+00
      -13  1    3    3    0    0 +3.1244135330e+01 -2.3942441975e+01 -4.0487046340e+01 5.6468021407e+01 0.0000000000e+00 0.0000e+00 -1.0000e+00
       13  1    3    3    0    0 +1.7806908540e+01 +2.5766393367e+01 +3.7959467333e+01 4.9212947271e+01 0.0000000000e+00 0.0000e+00 1.0000e+00
        5  1    4    4  501    0 -1.5843098549e+01 -6.6634642181e+00 +3.3682267996e+01 3.8104995793e+01 4.7000000000e+00 0.0000e+00 -1.0000e+00
       -5  1    4    4    0  501 -8.4660270378e+00 -2.1991499868e+01 +1.9335785583e+01 3.0842540174e+01 4.7000000000e+00 0.0000e+00 -1.0000e+00
        5  1    4    4  502    0 -1.5575442092e+01 +1.3122060508e+01 -4.0369655378e+01 4.5459673818e+01 4.7000000000e+00 0.0000e+00 1.0000e+00
       -5  1    4    4    0  502 -9.1664761912e+00 +1.3708952186e+01 -1.0120819194e+01 1.9911821538e+01 4.7000000000e+00 0.0000e+00 1.0000e+00
</event>
<event>
10      1 +4.6527485e-10 2.40000000e+02 7.81860800e-03 1.03012300e-01
      -11 -1    0    0    0    0 +0.0000000000e+00 +0.0000000000e+00 +1.2000000000e+02 1.2000000000e+02 0.0000000000e+00 0.0000e+00 -1.0000e+00
       11 -1    0    0    0    0 -0.0000000000e+00 -0.0000000000e+00 -1.2000000000e+02 1.2000000000e+02 0.0000000000e+00 0.0000e+00 1.0000e+00
       23  2    1    2    0    0 -4.7726407124e+01 +1.3228476757e+01 -2.0571589663e+01 1.0398143392e+02 8.9085047929e+01 0.0000e+00 0.0000e+00
       25  2    1    2    0    0 +4.7726407124e+01 -1.3228476757e+01 +2.0571589663e+01 1.3601856608e+02 1.2500022993e+02 0.0000e+00 0.0000e+00
      -11  1    3    3    0    0 -4.7150837917e+01 +3.6293357997e+01 +1.5202367024e+01 6.1412712968e+01 0.0000000000e+00 0.0000e+00 -1.0000e+00
       11  1    3    3    0    0 -5.7556920699e-01 -2.3064881239e+01 -3.5773956687e+01 4.2568720953e+01 0.0000000000e+00 0.0000e+00 1.0000e+00
        5  1    4    4  501    0 +1.3622411358e+01 -5.2562210435e+00 +4.4883529931e+00 1.5982279670e+01 4.7000000000e+00 0.0000e+00 1.0000e+00
       -5  1    4    4    0  502 -2.2336156828e+01 -1.5748588047e+01 -1.7064358413e+01 3.2560777868e+01 4.7000000000e+00 0.0000e+00 -1.0000e+00
        5  1    4    4  502    0 -1.0394468940e+01 -5.4243198545e+00 +6.0831877578e+00 1.4020107123e+01 4.7000000000e+00 0.0000e+00 -1.0000e+00
       -5  1    4    4    0  501 +6.6834621534e+01 +1.3200652188e+01 +2.7064407325e+01 7.3455401419e+01 4.7000000000e+00 0.0000e+00 -1.0000e+00
</event>
<event>
10      1 +4.6527485e-10 2.40000000e+02 7.81860800e-03 1.03012300e-01
      -11 -1    0    0    0    0 +0.0000000000e+00 +0.0000000000e+00 +1.2000000000e+02 1.2000000000e+02 0.0000000000e+00 0.0000e+00 -1.0000e+00
       11 -1    0    0    0    0 -0.0000000000e+00 -0.0000000000e+00 -1.2000000000e+02 1.2000000000e+02 0.0000000000e+00 0.0000e+00 1.0000e+00
       23  2    1    2    0    0 -3.4365824580e+01 -1.1900170993e+01 -3.6993114256e+01 1.0466593033e+02 9.0905679140e+01 0.0000e+00 0.0000e+00
       25  2    1    2    0    0 +3.4365824580e+01 +1.1900170993e+01 +3.6993114256e+01 1.3533406967e+02 1.2499678373e+02 0.0000e+00 0.0000e+00
      -13  1    3    3    0    0 -5.5244280797e+01 -3.5568856557e+01 -1.9284660476e+01 6.8476070618e+01 0.0000000000e+00 0.0000e+00 1.0000e+00
       13  1    3    3    0    0 +2.0878456218e+01 +2.3668685564e+01 -1.7708453780e+01 3.6189859708e+01 0.0000000000e+00 0.0000e+00 -1.0000e+00
        5  1    4    4  501    0 -1.2415527788e+01 +2.9047874064e+01 -2.2942950021e+01 3.9324207221e+01 4.7000000000e+00 0.0000e+00 1.0000e+00
       -5  1    4    4    0  501 +2.1668918591e+00 -1.6391041648e+00 -8.6182483107e+00 1.0185592115e+01 4.7000000000e+00 0.0000e+00 1.0000e+00
        5  1    4    4  502    0 +2.0248737917e+01 -9.3604349576e+00 +4.7567118340e+01 5.2747984578e+01 4.7000000000e+00 0.0000e+00 1.0000e+00
       -5  1    4    4    0  502 +2.4365722591e+01 -6.1481639490e+00 +2.0987194248e+01 3.3076285761e+01 4.7000000000e+00 0.0000e+00 1.0000e+00
</event>
<event>
10      1 +4.6527485e-10 2.40000000e+02 7.81860800e-03 1.03012300e-01
      -11 -1    0    0    0    0 +0.0000000000e+00 +0.0000000000e+00 +1.2000000000e+02 1.2000000000e+02 0.0000000000e+00 0.0000e+00 -1.0000e+00
       11 -1    0    0    0    0 -0.0000000000e+00 -0.0000000000e+00 -1.2000000000e+02 1.2000000000e+02 0.0000000000e+00 0.0000e+00 1.0000e+00
       23  2    1    2    0    0 +2.1425398093e+01 +3.4696413182e+01 -3.2880443569e+01 1.0446552948e+02 9.0382711342e+01 0.0000e+00 0.0000e+00
       25  2    1    2    0    0 -2.1425398093e+01 -3.4696413182e+01 +3.2880443569e+01 1.3553447052e+02 1.2500232141e+02 0.0000e+00 0.0000e+00
      -11  1    3    3    0    0 +2.0382853531e+01 -2.3023504730e+01 -3.5137026829e+01 4.6692110067e+01 0.0000000000e+00 0.0000e+00 1.0000e+00
       11  1    3    3    0    0 +1.0425445628e+00 +5.7719917912e+01 +2.2565832600e+00 5.7773419415e+01 0.0000000000e+00 0.0000e+00 -1.0000e+00
        5  1    4    4  501    0 +1.2077568790e+01 +2.6663572269e+01 +2.2983534965e+01 3.7511953209e+01 4.7000000000e+00 0.0000e+00 1.0000e+00
       -5  1    4    4    0  502 -3.3410048807e+01 -4.8775153970e+01 +3.9594080007e+00 5.9439161483e+01 4.7000000000e+00 0.0000e+00 -1.0000e+00
        5  1    4    4  502    0 -1.5302571672e+00 -2.2824771494e+01 +1.1390834650e+01 2.5983706333e+01 4.7000000000e+00 0.0000e+00 -1.0000e+00
       -5  1    4    4    0  501 +1.4373390909e+00 +1.0239940013e+01 -5.4533340476e+00 1.2599649494e+01 4.7000000000e+00 0.0000e+00 1.0000e+00
</event>
<event>
10      1 +4.6527485e-10 2.40000000e+02 7.81860800e-03 1.03012300e-01
      -11 -1    0    0    0    0 +0.0000000000e+00 +0.0000000000e+00 +1.2000000000e+02 1.2000000000e+02 0.0000000000e+00 0.0000e+00 1.0000e+00
       11 -1    0    0    0    0 -0.0000000000e+00 -0.0000000000e+00 -1.2000000000e+02 1.2000000000e+02 0.0000000000e+00 0.0000e+00 -1.0000e+00
       23  2    1    2    0    0 +2.6545376427e+00 +2.4318097919e+01 -4.4298120178e+01 1.0514699644e+02 9.2169143166e+01 0.0000e+00 0.0000e+00
       25  2    1    2    0    0 -2.6545376427e+00 -2.4318097919e+01 +4.4298120178e+01 1.3485300356e+02 1.2499837064e+02 0.0000e+00 0.0000e+00
      -11  1    3    3    0    0 -1.7011141835e+01 +2.5815663672e+01 -6.7770062192e+01 7.4488984198e+01 0.0000000000e+00 0.0000e+00 -1.0000e+00
       11  1    3    3    0    0 +1.9665679478e+01 -1.4975657523e+00 +2.3471942014e+01 3.0658012239e+01 0.0000000000e+00 0.0000e+00 1.0000e+00
        5  1    4    4  501    0 -1.4376213128e+01 -4.1905428017e+00 +2.6943293521e+01 3.1181199763e+01 4.7000000000e+00 0.0000e+00 1.0000e+00
       -5  1    4    4    0  502 +3.4758407836e+01 +5.3930290719e-01 -5.1702208517e+00 3.5457847462e+01 4.7000000000e+00 0.0000e+00 1.0000e+00
        5  1    4    4  502    0 +1.3490980944e+01 +4.0599661373e+00 -5.3923999313e+00 1.5800565461e+01 4.7000000000e+00 0.0000e+00 -1.0000e+00
       -5  1    4    4    0  501 -3.6527713295e+01 -2.4726824162e+01 +2.7917447439e+01 5.2413390877e+01 4.7000000000e+00 0.0000e+00 1.0000e+00
</event>
<event>
10      1 +4.6527485e-10 2.40000000e+02 7.81860800e-03 1.03012300e-01
      -11 -1    0    0    0    0 +0.0000000000e+00 +0.0000000000e+00 +1.2000000000e+02 1.2000000000e+02 0.0000000000e+00 0.0000e+00 1.0000e+00
       11 -1    0    0    0    0 -0.0000000000e+00 -0.0000000000e+00 -1.2000000000e+02 1.2000000000e+02 0.0000000000e+00 0.0000e+00 -1.0000e+00
       23  2    1    2    0    0 +6.1449480422e+00 +5.0548392016e+01 -1.1350537396e+01 1.0455107809e+02 9.0604596506e+01 0.0000e+00 0.0000e+00
       25  2    1    2    0    0 -6.1449480422e+00 -5.0548392016e+01 +1.1350537396e+01 1.3544892191e+02 1.2499870170e+02 0.0000e+00 0.0000e+00
      -11  1    3    3    0    0 -2.3900015059e+01 -6.0697142245e+00 +2.1330340071e+01 3.2604226078e+01 0.0000000000e+00 0.0000e+00 1.0000e+00
       11  1    3    3    0    0 +3.0044963101e+01 +5.6618106241e+01 -3.2680877467e+01 7.1946852009e+01 0.0000000000e+00 0.0000e+00 -1.0000e+00
        5  1    4    4  501    0 -2.4611438352e+01 +4.8935765692e+00 +3.3857685471e+01 4.2404042907e+01 4.7000000000e+00 0.0000e+00 -1.0000e+00
       -5  1    4    4    0  501 -1.6617280093e+01 +2.9444374726e+00 -1.0555025874e+01 2.0452439485e+01 4.7000000000e+00 0.0000e+00 -1.0000e+00
        5  1    4    4  502    0 +4.7667483985e+00 -2.0802514022e+01 +2.4357012886e+00 2.1988386041e+01 4.7000000000e+00 0.0000e+00 -1.0000e+00
       -5  1    4    4    0  502 +3.0317022004e+01 -3.7583892036e+01 -1.4387823490e+01 5.0604053479e+01 4.7000000000e+00 0.0000e+00 -1.0000e+00
</event>
<event>
10      1 +4.6527485e-10 2.40000000e+02 7.81860800e-03 1.03012300e-01
      -11 -1    0    0    0    0 +0.0000000000e+00 +0.0000000000e+00 +1.2000000000e+02 1.2000000000e+02 0.0000000000e+00 0.0000e+00 1.0000e+00
       11 -1    0    0    0    0 -0.0000000000e+00 -0.0000000000e+00 -1.2000000000e+02 1.2000000000e+02 0.0000000000e+00 0.0000e+00 -1.0000e+00
       23  2    1    2    0    0 -4.7732040231e+01 +1.2442594577e+01 -1.8410413388e+01 1.0436684803e+02 9.0112872676e+01 0.0000e+00 0.0000e+00
       25  2    1    2    0    0 +4.7732040231e+01 -1.2442594577e+01 +1.8410413388e+01 1.3563315197e+02 1.2499697104e+02 0.0000e+00 0.0000e+00
      -13  1    3    3    0    0 +1.5482862280e+00 +1.5506013213e+01 -4.5467588009e+01 4.8063865797e+01 0.0000000000e+00 0.0000e+00 -1.0000e+00
       13  1    3    3    0    0 -4.9280326459e+01 -3.0634186367e+00 +2.7057174621e+01 5.6302982231e+01 0.0000000000e+00 0.0000e+00 1.0000e+00
        5  1    4    4  501    0 -3.8443565223e+00 +1.7622248532e+00 -3.6522051361e+01 3.7065276866e+01 4.7000000000e+00 0.0000e+00 -1.0000e+00
       -5  1    4    4    0  502 +8.2738700519e+00 +1.5439428647e-01 +4.7284280283e+00 1.0626796076e+01 4.7000000000e+00 0.0000e+00 1.0000e+00
        5  1    4    4  502    0 +5.2479207856e+01 -1.2700063529e+01 +5.4303501098e+01 7.6722350735e+01 4.7000000000e+00 0.0000e+00 1.0000e+00
       -5  1    4    4    0  501 -9.1766811544e+00 -1.6591501877e+00 -4.0994643773e+00 1.1218728294e+01 4.7000000000e+00 0.0000e+00 -1.0000e+00
</event>
<event>
10      1 +4.6527485e-10 2.40000000e+02 7.81860800e-03 1.03012300e-01
      -11 -1    0    0    0    0 +0.0000000000e+00 +0.0000000000e+00 +1.2000000000e+02 1.2000000000e+02 0.0000000000e+00 0.0000e+00 1.0000e+00
       11 -1    0    0    0    0 -0.0000000000e+00 -0.0000000000e+00 -1.2000000000e+02 1.2000000000e+02 0.0000000000e+00 0.0000e+00 -1.0000e+00
       23  2    1    2    0    0 +4.4851313980e+01 -2.8099904127e+01 -1.4020570254e+01 1.0353249485e+02 8.7870109381e+01 0.0000e+00 0.0000e+00
       25  2    1    2    0    0 -4.4851313980e+01 +2.8099904127e+01 +1.4020570254e+01 1.3646750515e+02 1.2500223435e+02 0.0000e+00 0.0000e+00
      -11  1    3    3    0    0 +2.3602020883e+00 -2.1999991849e+00 -4.4868440623e+01 4.4984302976e+01 0.0000000000e+00 0.0000e+00 -1.0000e+00
       11  1    3    3    0    0 +4.2491111891e+01 -2.5899904942e+01 +3.0847870369e+01 5.8548191877e+01 0.0000000000e+00 0.0000e+00 1.0000e+00
        5  1    4    4  501    0 -3.1553083868e+01 -1.7913918997e+01 -3.8148088698e+01 5.2857092870e+01 4.7000000000e+00 0.0000e+00 1.0000e+00
       -5  1    4    4    0  501 +4.6451541970e+00 -1.8133602407e+00 -1.0649748743e+00 6.9346884832e+00 4.7000000000e+00 0.0000e+00 1.0000e+00
        5  1    4    4  502    0 -1.3363984325e+01 +4.2532221422e+01 +5.1101834012e+01 6.7978477296e+01 4.7000000000e+00 0.0000e+00 1.0000e+00
       -5  1    4    4    0  502 -4.5793999845e+00 +5.2949619422e+00 +2.1317998143e+00 8.6972464973e+00 4.7000000000e+00 0.0000e+00 1.0000e+00
</event>
<event>
10      1 +4.6527485e-10 2.40000000e+02 7.81860800e-03 1.03012300e-01
      -11 -1    0    0    0    0 +0.0000000000e+00 +0.0000000000e+00 +1.2000000000e+02 1.2000000000e+02 0.0000000000e+00 0.0000e+00 -1.0000e+00
       11 -1    0    0    0    0 -0.0000000000e+00 -0.0000000000e+00 -1.2000000000e+02 1.2000000000e+02 0.0000000000e+00 0.0000e+00 1.0000e+00
       23  2    1    2    0    0 +8.0220129700e+00 -4.1416395775e+01 -3.1866811235e+01 1.0428964628e+02 8.9895306501e+01 0.0000e+00 0.0000e+00
       25  2    1    2    0    0 -8.0220129700e+00 +4.1416395775e+01 +3.1866811235e+01 1.3571035372e+02 1.2498854315e+02 0.0000e+00 0.0000e+00
      -11  1    3    3    0    0 -1.2457756163e+01 -2.4182324249e+00 -5.3663228437e+01 5.5143318933e+01 0.0000000000e+00 0.0000e+00 1.0000e+00
       11  1    3    3    0    0 +2.0479769133e+01 -3.8998163350e+01 +2.1796417202e+01 4.9146327343e+01 0.0000000000e+00 0.0000e+00 -1.0000e+00
        5  1    4    4  501    0 -8.2014032555e+00 -1.2671563190e+01 -3.4858918139e-01 1.5812749396e+01 4.7000000000e+00 0.0000e+00 -1.0000e+00
       -5  1    4    4    0  502 +1.6858964738e+00 +7.2022112440e+00 -3.4005292799e+00 9.4004091989e+00 4.7000000000e+00 0.0000e+00 -1.0000e+00
        5  1    4    4  502    0 +2.3214955512e+00 +7.4311155476e+01 +1.5880669368e+01 7.6169697580e+01 4.7000000000e+00 0.0000e+00 1.0000e+00
       -5  1    4    4    0  501 -3.8280017395e+00 -2.7425407755e+01 +1.9735260328e+01 3.4327497550e+01 4.7000000000e+00 0.0000e+00 -1.0000e+00
</event>
<event>
10      1 +4.6527485e-10 2.40000000e+02 7.81860800e-03 1.03012300e-01
      -11 -1    0    0    0    0 +0.0000000000e+00 +0.0000000000e+00 +1.2000000000e+02 1.2000000000e+02 0.0000000000e+00 0.0000e+00 1.0000e+00
       11 -1    0    0    0    0 -0.0000000000e+00 -0.0000000000e+00 -1.2000000000e+02 1.2000000000e+02 0.0000000000e+00 0.0000e+00 -1.0000e+00
       23  2    1    2    0    0 +3.5831633034e+00 +4.4018289983e+01 +1.4757427516e+01 1.0660618160e+02 9.5899152113e+01 0.0000e+00 0.0000e+00
       25  2    1    2    0    0 -3.5831633034e+00 -4.4018289983e+01 -1.4757427516e+01 1.3339381840e+02 1.2500272080e+02 0.0000e+00 0.0000e+00
      -11  1    3    3    0    0 +1.0067175245e+01 +8.3381467059e+00 -3.9353126691e+01 4.1467352076e+01 0.0000000000e+00 0.0000e+00 -1.0000e+00
       11  1    3    3    0    0 -6.4840119418e+00 +3.5680143277e+01 +5.4110554206e+01 6.5138829523e+01 0.0000000000e+00 0.0000e+00 1.0000e+00
        5  1    4    4  501    0 +3.7923680022e+01 -2.3456303682e+01 -4.6087512562e+01 6.4300486025e+01 4.7000000000e+00 0.0000e+00 -1.0000e+00
       -5  1    4    4    0  502 -3.1611806296e+01 -6.9643068928e+00 +1.4572267613e+01 3.5808502498e+01 4.7000000000e+00 0.0000e+00 1.0000e+00
        5  1    4    4  502    0 -1.1188255838e+01 -8.3409502523e+00 +2.0466394972e+01 2.5213326693e+01 4.7000000000e+00 0.0000e+00 1.0000e+00
       -5  1    4    4    0  501 +1.2932188080e+00 -5.2567291553e+00 -3.7085775383e+00 8.0715031844e+00 4.7000000000e+00 0.0000e+00 1.0000e+00
</event>
<event>
10      1 +4.6527485e-10 2.40000000e+02 7.81860800e-03 1.03012300e-01
      -11 -1    0    0    0    0 +0.0000000000e+00 +0.0000000000e+00 +1.2000000000e+02 1.2000000000e+02 0.0000000000e+00 0.0000e+00 1.0000e+00
       11 -1    0    0    0    0 -0.0000000000e+00 -0.0000000000e+00 -1.2000000000e+02 1.2000000000e+02 0.0000000000e+00 0.0000e+00 -1.0000e+00
       23  2    1    2    0    0 -2.7494916465e+01 -4.2643361524e+01 +1.9981300940e+00 1.0507985136e+02 9.1996499524e+01 0.0000e+00 0.0000e+00
       25  2    1    2    0    0 +2.7494916465e+01 +4.2643361524e+01 -1.9981300940e+00 1.3492014864e+02 1.2500010909e+02 0.0000e+00 0.0000e+00
      -11  1    3    3    0    0 -2.6085242911e+01 -2.1265930892e+00 +4.1118832279e+01 4.8741365018e+01 0.0000000000e+00 0.0000e+00 1.0000e+00
       11  1    3    3    0    0 -1.4096735545e+00 -4.0516768435e+01 -3.9120702185e+01 5.6338486342e+01 0.0000000000e+00 0.0000e+00 -1.0000e+00
        5  1    4    4  501    0 -9.1520325128e+00 +4.7724089180e+01 -1.0369951750e+01 4.9909661254e+01 4.7000000000e+00 0.0000e+00 -1.0000e+00
       -5  1    4    4    0  502 +1.1358160587e+00 -6.2531431137e-01 +4.4463739044e-01 4.8957939618e+00 4.7000000000e+00 0.0000e+00 1.0000e+00
        5  1    4    4  502    0 +4.0149058726e+01 -3.1453427638e+01 +2.2430314784e-02 5.1218702931e+01 4.7000000000e+00 0.0000e+00 -1.0000e+00
       -5  1    4    4    0  501 -4.6379258072e+00 +2.6998014293e+01 +7.9047539509e+00 2.8895990493e+01 4.7000000000e+00 0.0000e+00 -1.0000e+00
</event>
<event>
10      1 +4.6527485e-10 2.40000000e+02 7.81860800e-03 1.03012300e-01
      -11 -1    0    0    0    0 +0.0000000000e+00 +0.0000000000e+00 +1.2000000000e+02 1.2000000000e+02 0.0000000000e+00 0.0000e+00 -1.0000e+00
       11 -1    0    0    0    0 -0.0000000000e+00 -0.0000000000e+00 -1.2000000000e+02 1.2000000000e+02 0.0000000000e+00 0.0000e+00 1.0000e+00
       23  2    1    2    0    0 -2.4071660780e+01 +3.2074679457e+01 +3.2657849106e+01 1.0472355490e+02 9.1061835742e+01 0.0000e+00 0.0000e+00
       25  2    1    2    0    0 +2.4071660780e+01 -3.2074679457e+01 -3.2657849106e+01 1.3527644510e+02 1.2499980630e+02 0.0000e+00 0.0000e+00
      -11  1    3    3    0    0 -1.7857133575e+01 -7.7531646151e+00 +5.5204591435e+01 5.8536618424e+01 0.0000000000e+00 0.0000e+00 -1.0000e+00
       11  1    3    3    0    0 -6.2145272048e+00 +3.9827844072e+01 -2.2546742329e+01 4.6186936481e+01 0.0000000000e+00 0.0000e+00 1.0000e+00
        5  1    4    4  501    0 +4.5674739705e+01 -5.6769221866e+01 -4.1287076854e+01 8.3878716690e+01 4.7000000000e+00 0.0000e+00 -1.0000e+00
       -5  1    4    4    0  501 +6.5870489708e+00 +2.0375707143e+00 -5.5717848551e+00 1.0033727873e+01 4.7000000000e+00 0.0000e+00 -1.0000e+00
        5  1    4    4  502    0 -8.1060504850e+00 +2.0178157476e+00 +4.7122916617e+00 1.0680605206e+01 4.7000000000e+00 0.0000e+00 -1.0000e+00
       -5  1    4    4    0  502 -2.0084077411e+01 +2.0639155947e+01 +9.4887209417e+00 3.0683395326e+01 4.7000000000e+00 0.0000e+00 -1.0000e+00
</event>
<event>
10      1 +4.6527485e-10 2.40000000e+02 7.81860800e-03 1.03012300e-01
      -11 -1    0    0    0    0 +0.0000000000e+00 +0.0000000000e+00 +1.2000000000e+02 1.2000000000e+02 0.0000000000e+00 0.0000e+00 -1.0000e+00
       11 -1    0    0    0    0 -0.0000000000e+00 -0.0000000000e+00 -1.2000000000e+02 1.2000000000e+02 0.0000000000e+00 0.0000e+00 1.0000e+00
       23  2    1    2    0    0 +2.8663129347e+00 +5.1996386286e+01 -1.2808678404e-01 1.0458573553e+02 9.0699061374e+01 0.0000e+00 0.0000e+00
       25  2    1    2    0    0 -2.8663129347e+00 -5.1996386286e+01 +1.2808678404e-01 1.3541426447e+02 1.2500066671e+02 0.0000e+00 0.0000e+00
      -11  1    3    3    0    0 +2.8075671329e+01 +6.2483609919e+01 -1.9364809504e+01 7.1185958420e+01 0.0000000000e+00 0.0000e+00 1.0000e+00
       11  1    3    3    0    0 -2.5209358395e+01 -1.0487223633e+01 +1.9236722720e+01 3.3399777113e+01 0.0000000000e+00 0.0000e+00 -1.0000e+00
        5  1    4    4  501    0 +2.7006356390e+00 -7.4716952999e+00 +5.8413131959e+00 1.0923854785e+01 4.7000000000e+00 0.0000e+00 1.0000e+00
       -5  1    4    4    0  502 -1.8319016017e+01 +5.5266123669e+00 +3.5344493957e+00 2.0017795199e+01 4.7000000000e+00 0.0000e+00 -1.0000e+00
        5  1    4    4  502    0 -2.0955056420e+01 +1.3307766620e+01 -1.9379751527e+01 3.1841416602e+01 4.7000000000e+00 0.0000e+00 -1.0000e+00
       -5  1    4    4    0  501 +3.3707123864e+01 -6.3359069974e+01 +1.0132075720e+01 7.2631197880e+01 4.7000000000e+00 0.0000e+00 1.0000e+00
</event>
<event>
10      1 +4.6527485e-10 2.40000000e+02 7.81860800e-03 1.03012300e-01
      -11 -1    0    0    0    0 +0.0000000000e+00 +0.0000000000e+00 +1.2000000000e+02 1.2000000000e+02 0.0000000000e+00 0.0000e+00 1.0000e+00
       11 -1    0    0    0    0 -0.0000000000e+00 -0.0000000000e+00 -1.2000000000e+02 1.2000000000e+02 0.0000000000e+00 0.0000e+00 -1.0000e+00
       23  2    1    2    0    0 -2.0337366127e+01 -2.5586591192e+00 +4.0027386504e+01 1.0715530135e+02 9.7262077605e+01 0.0000e+00 0.0000e+00
       25  2    1    2    0    0 +2.0337366127e+01 +2.5586591192e+00 -4.0027386504e+01 1.3284469865e+02 1.2500146836e+02 0.0000e+00 0.0000e+00
      -13  1    3    3    0    0 +2.7310837697e+01 -3.1401297687e+01 +2.8042214209e+01 5.0182558025e+01 0.0000000000e+00 0.0000e+00 -1.0000e+00
       13  1    3    3    0    0 -4.7648203825e+01 +2.8842638568e+01 +1.1985172295e+01 5.6972743327e+01 0.0000000000e+00 0.0000e+00 1.0000e+00
        5  1    4    4  501    0 +4.3483210853e-01 +1.6606545662e+01 +8.3212064968e-01 1.7284353114e+01 4.7000000000e+00 0.0000e+00 -1.0000e+00
       -5  1    4    4    0  501 +1.8383971447e+01 +2.3425321523e+01 +2.3814328472e+01 3.8417812733e+01 4.7000000000e+00 0.0000e+00 -1.0000e+00
        5  1    4    4  502    0 +5.4996883729e+00 -5.3064560317e+00 -1.0229620286e+01 1.3606622616e+01 4.7000000000e+00 0.0000e+00 1.0000e+00
       -5  1    4    4    0  502 -3.9811258009e+00 -3.2166752035e+01 -5.4444215340e+01 6.3535910185e+01 4.7000000000e+00 0.0000e+00 -1.0000e+00
</event>
<event>
10      1 +4.6527485e-10 2.40000000e+02 7.81860800e-03 1.03012300e-01
      -11 -1    0    0    0    0 +0.0000000000e+00 +0.0000000000e+00 +1.2000000000e+02 1.2000000000e+02 0.0000000000e+00 0.0000e+00 1.0000e+00
       11 -1    0    0    0    0 -0.0000000000e+00 -0.0000000000e+00 -1.2000000000e+02 1.2000000000e+02 0.0000000000e+00 0.0000e+00 -1.0000e+00
       23  2    1    2    0    0 -2.2547547606e+01 -4.0145355932e+01 -2.2546225224e+01 1.0489452517e+02 9.1512226684e+01 0.0000e+00 0.0000e+00
       25  2    1    2    0    0 +2.2547547606e+01 +4.0145355932e+01 +2.2546225224e+01 1.3510547483e+02 1.2500046220e+02 0.0000e+00 0.0000e+00
      -13  1    3    3    0    0 +2.9745534251e+01 +2.8566482066e+00 +7.5220291142e+00 3.0814577214e+01 0.0000000000e+00 0.0000e+00 1.0000e+00
       13  1    3    3    0    0 -5.2293081858e+01 -4.3002004139e+01 -3.0068254338e+01 7.4079947956e+01 0.0000000000e+00 0.0000e+00 -1.0000e+00
        5  1    4    4  501    0 -1.5799020736e+00 -4.3356207110e+00 -4.9279060900e+00 8.2260534854e+00 4.7000000000e+00 0.0000e+00 1.0000e+00
       -5  1    4    4    0  501 -3.7179020514e+01 +4.9296242396e+00 -1.3173270385e+01 4.0027563180e+01 4.7000000000e+00 0.0000e+00 1.0000e+00
        5  1    4    4  502    0 +7.8545291945e+00 +6.5805888253e+00 -1.0479218474e+00 1.1321922026e+01 4.7000000000e+00 0.0000e+00 1.0000e+00
       -5  1    4    4    0  502 +5.3451940999e+01 +3.2970763578e+01 +4.1695323547e+01 7.5529936139e+01 4.7000000000e+00 0.0000e+00 1.0000e+00
</event>
<event>
10      1 +4.6527485e-10 2.40000000e+02 7.81860800e-03 1.03012300e-01
      -11 -1    0    0    0    0 +0.0000000000e+00 +0.0000000000e+00 +1.2000000000e+02 1.2000000000e+02 0.0000000000e+00 0.0000e+00 1.0000e+00
       11 -1    0    0    0    0 -0.0000000000e+00 -0.0000000000e+00 -1.2000000000e+02 1.2000000000e+02 0.0000000000e+00 0.0000e+00 -1.0000e+00
       23  2    1    2    0    0 -9.7915463172e+00 +2.7239243882e+01 +2.4283113989e+01 1.0941559341e+02 1.0268520668e+02 0.0000e+00 0.0000e+00
       25  2    1    2    0    0 +9.7915463172e+00 -2.7239243882e+01 -2.4283113989e+01 1.3058440659e+02 1.2499906732e+02 0.0000e+00 0.0000e+00
      -13  1    3    3    0    0 -1.0848016023e+01 +3.1990842850e+01 +6.2417344430e+01 7.0971954768e+01 0.0000000000e+00 0.0000e+00 1.0000e+00
       13  1    3    3    0    0 +1.0564697063e+00 -4.7515989681e+00 -3.8134230441e+01 3.8443638646e+01 0.0000000000e+00 0.0000e+00 -1.0000e+00
        5  1    4    4  501    0 +6.7512785319e+00 +4.9306248356e+00 -1.2420590275e+01 1.5692414915e+01 4.7000000000e+00 0.0000e+00 -1.0000e+00
       -5  1    4    4    0  501 -5.8133237995e+00 +2.7287294007e+01 -3.7074956440e+01 4.6637254881e+01 4.7000000000e+00 0.0000e+00 -1.0000e+00
        5  1    4    4  502    0 +4.1448377757e+00 -4.9517953481e+01 +2.5980495920e+01 5.6269739340e+01 4.7000000000e+00 0.0000e+00 -1.0000e+00
       -5  1    4    4    0  502 +4.7087538091e+00 -9.9392092427e+00 -7.6806319312e-01 1.1984997450e+01 4.7000000000e+00 0.0000e+00 1.0000e+00
</event>
<event>
10      1 +4.6527485e-10 2.40000000e+02 7.81860800e-03 1.03012300e-01
      -11 -1    0    0    0    0 +0.0000000000e+00 +0.0000000000e+00 +1.2000000000e+02 1.2000000000e+02 0.0000000000e+00 0.0000e+00 -1.0000e+00
       11 -1    0    0    0    0 -0.0000000000e+00 -0.0000000000e+00 -1.2000000000e+02 1.2000000000e+02 0.0000000000e+00 0.0000e+00 1.0000e+00
       23  2    1    2    0    0 -1.7289548566e+01 +3.1578536096e+01 +3.4892531282e+01 1.0532039940e+02 9.2621624678e+01 0.0000e+00 0.0000e+00
       25  2    1    2    0    0 +1.7289548566e+01 -3.1578536096e+01 -3.4892531282e+01 1.3467960060e+02 1.2499989459e+02 0.0000e+00 0.0000e+00
      -11  1    3    3    0    0 +2.6476041138e+00 +2.9122255435e+01 +6.3763191448e+01 7.0148842847e+01 0.0000000000e+00 0.0000e+00 -1.0000e+00
       11  1    3    3    0    0 -1.9937152680e+01 +2.4562806618e+00 -2.8870660166e+01 3.5171556549e+01 0.0000000000e+00 0.0000e+00 1.0000e+00
        5  1    4    4  501    0 -2.8679675669e+01 -1.6225790572e+01 -5.0713752281e+01 6.0661146928e+01 4.7000000000e+00 0.0000e+00 1.0000e+00
       -5  1    4    4    0  501 -6.1649266242e+00 -1.0617095812e+01 -5.5502136294e+00 1.4269685179e+01 4.7000000000e+00 0.0000e+00 1.0000e+00
        5  1    4    4  502    0 +1.9758462148e+01 +4.9968760357e+00 +1.2926185236e+01 2.4587432996e+01 4.7000000000e+00 0.0000e+00 1.0000e+00
       -5  1    4    4    0  502 +3.2375688711e+01 -9.7325257481e+00 +8.4452493929e+00 3.5161335502e+01 4.7000000000e+00 0.0000e+00 1.0000e+00
</event>
<event>
10      1 +4.6527485e-10 2.40000000e+02 7.81860800e-03 1.03012300e-01
      -11 -1    0    0    0    0 +0.0000000000e+00 +0.0000000000e+00 +1.2000000000e+02 1.2000000000e+02 0.0000000000e+00 0.0000e+00 -1.0000e+00
       11 -1    0    0    0    0 -0.0000000000e+00 -0.0000000000e+00 -1.2000000000e+02 1.2000000000e+02 0.0000000000e+00 0.0000e+00 1.0000e+00
       23  2    1    2    0    0 +4.9861902207e+01 +1.9680029535e+00 +3.0246399477e+00 1.0536883520e+02 9.2754302637e+01 0.0000e+00 0.0000e+00
       25  2    1    2    0    0 -4.9861902207e+01 -1.9680029535e+00 -3.0246399477e+00 1.3463116480e+02 1.2500527893e+02 0.0000e+00 0.0000e+00
      -11  1    3    3    0    0 -6.8914495435e-01 -1.2965326866e+01 +3.9295265162e+01 4.1384689025e+01 0.0000000000e+00 0.0000e+00 -1.0000e+00
       11  1    3    3    0    0 +5.0551047161e+01 +1.4933329820e+01 -3.6270625214e+01 6.3984146177e+01 0.0000000000e+00 0.0000e+00 1.0000e+00
        5  1    4    4  501    0 -1.8732677288e+01 -4.2134592112e+01 -3.8334709544e+01 6.0148790567e+01 4.7000000000e+00 0.0000e+00 1.0000e+00
       -5  1    4    4    0  502 -2.0904569460e+01 +4.2007825808e+01 +3.1391939971e+01 5.6649822141e+01 4.7000000000e+00 0.0000e+00 1.0000e+00
        5  1    4    4  502    0 -9.0551146006e+00 +2.8191866668e+00 +3.2789693552e+00 1.1080819190e+01 4.7000000000e+00 0.0000e+00 -1.0000e+00
       -5  1    4    4    0  501 -1.1695408583e+00 -4.6604233165e+00 +6.3916027044e-01 6.7517329005e+00 4.7000000000e+00 0.0000e+00 -1.0000e+00
</event>
<event>
10      1 +4.6527485e-10 2.40000000e+02 7.81860800e-03 1.03012300e-01
      -11 -1    0    0    0    0 +0.0000000000e+00 +0.0000000000e+00 +1.2000000000e+02 1.2000000000e+02 0.0000000000e+00 0.0000e+00 1.0000e+00
       11 -1    0    0    0    0 -0.0000000000e+00 -0.0000000000e+00 -1.2000000000e+02 1.2000000000e+02 0.0000000000e+00 0.0000e+00 -1.0000e+00
       23  2    1    2    0    0 -4.2918342024e+01 +2.0171206263e+01 -1.9385496534e+01 1.0490904101e+02 9.1549154911e+01 0.0000e+00 0.0000e+00
       25  2    1    2    0    0 +4.2918342024e+01 -2.0171206263e+01 +1.9385496534e+01 1.3509095899e+02 1.2499963233e+02 0.0000e+00 0.0000e+00
      -13  1    3    3    0    0 -2.8688945256e+01 +5.5605500926e+01 -1.1189360632e+00 6.2580183214e+01 0.0000000000e+00 0.0000e+00 1.0000e+00
       13  1    3    3    0    0 -1.4229396769e+01 -3.5434294663e+01 -1.8266560471e+01 4.2328857793e+01 0.0000000000e+00 0.0000e+00 -1.0000e+00
        5  1    4    4  501    0 +2.3935538220e+01 +5.4967435260e+00 +2.1202918355e+01 3.2783805851e+01 4.7000000000e+00 0.0000e+00 1.0000e+00
       -5  1    4    4    0  501 +2.1129944248e+01 +2.5190487424e+01 +2.4879493392e+01 4.1498366137e+01 4.7000000000e+00 0.0000e+00 1.0000e+00
        5  1    4    4  502    0 -2.2558631069e+00 -1.6618745904e+01 -1.8256446950e+01 2.5232112258e+01 4.7000000000e+00 0.0000e+00 1.0000e+00
       -5  1    4    4    0  502 +1.0872266324e-01 -3.4239691309e+01 -8.4404682633e+00 3.5576674747e+01 4.7000000000e+00 0.0000e+00 1.0000e+00
</event>
<event>
10      1 +4.6527485e-10 2.40000000e+02 7.81860800e-03 1.03012300e-01
      -11 -1    0    0    0    0 +0.0000000000e+00 +0.0000000000e+00 +1.2000000000e+02 1.2000000000e+02 0.0000000000e+00 0.0000e+00 -1.0000e+00
       11 -1    0    0    0    0 -0.0000000000e+00 -0.0000000000e+00 -1.2000000000e+02 1.2000000000e+02 0.0000000000e+00 0.0000e+00 1.0000e+00
       23  2    1    2    0    0 +2.8156473902e+01 -8.6282459983e-01 +4.5089880518e+01 1.0418585357e+02 8.9599460212e+01 0.0000e+00 0.0000e+00
       25  2    1    2    0    0 -2.8156473902e+01 +8.6282459983e-01 -4.5089880518e+01 1.3581414643e+02 1.2497541181e+02 0.0000e+00 0.0000e+00
      -11  1    3    3    0    0 -2.0006847461e+00 +4.0262176886e+01 +7.9257423427e+00 4.1083610099e+01 0.0000000000e+00 0.0000e+00 1.0000e+00
       11  1    3    3    0    0 +3.0157158648e+01 -4.1125001486e+01 +3.7164138175e+01 6.3102243472e+01 0.0000000000e+00 0.0000e+00 -1.0000e+00
        5  1    4    4  501    0 +1.6678914424e+01 -6.4483957012e+00 -7.0721290767e+00 1.9795782459e+01 4.7000000000e+00 0.0000e+00 -1.0000e+00
       -5  1    4    4    0  502 -1.3291162932e+01 +7.7518557062e+00 -4.2315417595e+00 1.6635571065e+01 4.7000000000e+00 0.0000e+00 1.0000e+00
        5  1    4    4  502    0 -4.6700539333e+01 +9.6874522406e+00 -5.3702262800e+01 7.1977844749e+01 4.7000000000e+00 0.0000e+00 1.0000e+00
       -5  1    4    4    0  501 +1.5156313939e+01 -1.0128087646e+01 +1.9916053118e+01 2.7404948155e+01 4.7000000000e+00 0.0000e+00 -1.0000e+00
</event>
<event>
10      1 +4.6527485e-10 2.40000000e+02 7.81860800e-03 1.03012300e-01
      -11 -1    0    0    0    0 +0.0000000000e+00 +0.0000000000e+00 +1.2000000000e+02 1.2000000000e+02 0.0000000000e+00 0.0000e+00 -1.0000e+00
       11 -1    0    0    0    0 -0.0000000000e+00 -0.0000000000e+00 -1.2000000000e+02 1.2000000000e+02 0.0000000000e+00 0.0000e+00 1.0000e+00
       23  2    1    2    0    0 +3.7818590772e+01 -3.1367658291e+01 +1.1928472711e+01 1.0516595906e+02 9.2213961463e+01 0.0000e+00 0.0000e+00
       25  2    1    2    0    0 -3.7818590772e+01 +3.1367658291e+01 -1.1928472711e+01 1.3483404094e+02 1.2499501726e+02 0.0000e+00 0.0000e+00
      -13  1    3    3    0    0 +8.9030575490e+00 +2.0760214822e+01 +3.4657640969e+01 4.1369107203e+01 0.0000000000e+00 0.0000e+00 -1.0000e+00
       13  1    3    3    0    0 +2.8915533223e+01 -5.2127873114e+01 -2.2729168259e+01 6.3796851855e+01 0.0000000000e+00 0.0000e+00 1.0000e+00
        5  1    4    4  501    0 -2.7768346903e+01 -3.7616570376e+01 +1.7343326995e+00 4.7023242833e+01 4.7000000000e+00 0.0000e+00 -1.0000e+00
       -5  1    4    4    0  501 -2.5719033239e+00 -4.9332027839e+00 -2.9804405193e+00 7.8691932308e+00 4.7000000000e+00 0.0000e+00 -1.0000e+00
        5  1    4    4  502    0 -5.4092065941e+00 +7.3395568973e+01 -1.1738369263e+01 7.4672942715e+01 4.7000000000e+00 0.0000e+00 1.0000e+00
       -5  1    4    4    0  502 -2.0691339505e+00 +5.2186247905e-01 +1.0560043716e+00 5.2686621627e+00 4.7000000000e+00 0.0000e+00 1.0000e+00
</event>
<event>
10      1 +4.6527485e-10 2.40000000e+02 7.81860800e-03 1.03012300e-01
      -11 -1    0    0    0    0 +0.0000000000e+00 +0.0000000000e+00 +1.2000000000e+02 1.2000000000e+02 0.0000000000e+00 0.0000e+00 1.0000e+00
       11 -1    0    0    0    0 -0.0000000000e+00 -0.0000000000e+00 -1.2000000000e+02 1.2000000000e+02 0.0000000000e+00 0.0000e+00 -1.0000e+00
       23  2    1    2    0    0 -2.2015034080e+00 -1.8154176140e+01 +5.0074190268e+01 1.0409638196e+02 8.9410354421e+01 0.0000e+00 0.0000e+00
       25  2    1    2    0    0 +2.2015034080e+00 +1.8154176140e+01 -5.0074190268e+01 1.3590361804e+02 1.2501179199e+02 0.0000e+00 0.0000e+00
      -11  1    3    3    0    0 +3.0220748942e+01 -1.7621230989e+01 +6.0626880619e+01 6.9995857747e+01 0.0000000000e+00 0.0000e+00 1.0000e+00
       11  1    3    3    0    0 -3.2422252350e+01 -5.3294515081e-01 -1.0552690351e+01 3.4100524213e+01 0.0000000000e+00 0.0000e+00 -1.0000e+00
        5  1    4    4  501    0 +3.6070651196e+01 -2.9685353733e+01 +2.6668785468e+00 4.7026740746e+01 4.7000000000e+00 0.0000e+00 1.0000e+00
       -5  1    4    4    0  502 -2.3463618780e+01 +3.8071997728e+01 -4.4399758580e+01 6.3193725790e+01 4.7000000000e+00 0.0000e+00 1.0000e+00
        5  1    4    4  502    0 -7.0017211260e+00 +1.4159586774e+01 -3.2411733059e+00 1.6796225789e+01 4.7000000000e+00 0.0000e+00 1.0000e+00
       -5  1    4    4    0  501 -3.4038078819e+00 -4.3920546290e+00 -5.1001369290e+00 8.8869257145e+00 4.7000000000e+00 0.0000e+00 1.0000e+00
</event>
<event>
10      1 +4.6527485e-10 2.40000000e+02 7.81860800e-03 1.03012300e-01
      -11 -1    0    0    0    0 +0.0000000000e+00 +0.0000000000e+00 +1.2000000000e+02 1.2000000000e+02 0.0000000000e+00 0.0000e+00 1.0000e+00
       11 -1    0    0    0    0 -0.0000000000e+00 -0.0000000000e+00 -1.2000000000e+02 1.2000000000e+02 0.0000000000e+00 0.0000e+00 -1.0000e+00
       23  2    1    2    0    0 +2.1762985052e+01 +5.1842323035e+01 +9.8628509380e+00 1.0258277301e+02 8.5233183171e+01 0.0000e+00 0.0000e+00
       25  2    1    2    0    0 -2.1762985052e+01 -5.1842323035e+01 -9.8628509380e+00 1.3741722699e+02 1.2499985788e+02 0.0000e+00 0.0000e+00
      -13  1    3    3    0    0 -2.3872436090e+01 +5.0960834421e+01 +8.5412932716e+00 5.6919711353e+01 0.0000000000e+00 0.0000e+00 1.0000e+00
       13  1    3    3    0    0 +4.5635421142e+01 +8.8148861310e-01 +1.3215576664e+00 4.5663061655e+01 0.0000000000e+00 0.0000e+00 -1.0000e+00
        5  1    4    4  501    0 -3.3195843843e+01 -1.5068923476e+01 +2.0508901702e+00 3.6814842844e+01 4.7000000000e+00 0.0000e+00 1.0000e+00
       -5  1    4    4    0  502 -1.4882237187e+01 +3.4097034715e+00 +6.8852305813e+00 1.7395501189e+01 4.7000000000e+00 0.0000e+00 1.0000e+00
        5  1    4    4  502    0 -1.5257648245e+01 +3.8761663838e-01 +9.3296098836e+00 1.8495342582e+01 4.7000000000e+00 0.0000e+00 -1.0000e+00
       -5  1    4    4    0  501 +4.1572744223e+01 -4.0570719669e+01 -2.8128581573e+01 6.4711540377e+01 4.7000000000e+00 0.0000e+00 -1.0000e+00
</event>
<event>
10      1 +4.6527485e-10 2.40000000e+02 7.81860800e-03 1.03012300e-01
      -11 -1    0    0    0    0 +0.0000000000e+00 +0.0000000000e+00 +1.2000000000e+02 1.2000000000e+02 0.0000000000e+00 0.0000e+00 -1.0000e+00
       11 -1    0    0    0    0 -0.0000000000e+00 -0.0000000000e+00 -1.2000000000e+02 1.2000000000e+02 0.0000000000e+00 0.0000e+00 1.0000e+00
       23  2    1    2    0    0 +2.9283406128e+01 -3.2175057617e+01 -1.7702541465e+01 1.0646795219e+02 9.5547332052e+01 0.0000e+00 0.0000e+00
       25  2    1    2    0    0 -2.9283406128e+01 +3.2175057617e+01 +1.7702541465e+01 1.3353204781e+02 1.2499870244e+02 0.0000e+00 0.0000e+00
      -13  1    3    3    0    0 +4.5328679183e+01 -7.9020114660e+00 -4.6579791539e+01 6.5473719320e+01 0.0000000000e+00 0.0000e+00 1.0000e+00
       13  1    3    3    0    0 -1.6045273055e+01 -2.4273046151e+01 +2.8877250074e+01 4.0994232871e+01 0.0000000000e+00 0.0000e+00 -1.0000e+00
        5  1    4    4  501    0 +6.7302527676e+00 -4.1018758030e+01 +9.2806784441e+00 4.2849221755e+01 4.7000000000e+00 0.0000e+00 1.0000e+00
       -5  1    4    4    0  501 -5.3984209271e-01 -7.6693930476e-01 -1.3017431451e-01 4.7944312212e+00 4.7000000000e+00 0.0000e+00 1.0000e+00
        5  1    4    4  502    0 -3.3376458582e+01 +7.2250427424e+01 +9.7922908245e+00 8.0324910271e+01 4.7000000000e+00 0.0000e+00 1.0000e+00
       -5  1    4    4    0  502 -2.0973582208e+00 +1.7103275275e+00 -1.2402534887e+00 5.5634845622e+00 4.7000000000e+00 0.0000e+00 1.0000e+00
</event>
<event>
10      1 +4.6527485e-10 2.40000000e+02 7.81860800e-03 1.03012300e-01
      -11 -1    0    0    0    0 +0.0000000000e+00 +0.0000000000e+00 +1.2000000000e+02 1.2000000000e+02 0.0000000000e+00 0.0000e+00 1.0000e+00
       11 -1    0    0    0    0 -0.0000000000e+00 -0.0000000000e+00 -1.2000000000e+02 1.2000000000e+02 0.0000000000e+00 0.0000e+00 -1.0000e+00
       23  2    1    2    0    0 -1.2627542974e+01 +3.9346687958e+00 -5.0859898774e+01 1.0440882878e+02 9.0219386848e+01 0.0000e+00 0.0000e+00
       25  2    1    2    0    0 +1.2627542974e+01 -3.9346687958e+00 +5.0859898774e+01 1.3559117122e+02 1.2499319962e+02 0.0000e+00 0.0000e+00
      -11  1    3    3    0    0 +2.6377663123e+00 +3.3071082982e+01 -6.1466132923e+01 6.9847976616e+01 0.0000000000e+00 0.0000e+00 -1.0000e+00
       11  1    3    3    0    0 -1.5265309286e+01 -2.9136414186e+01 +1.0606234150e+01 3.4560852161e+01 0.0000000000e+00 0.0000e+00 1.0000e+00
        5  1    4    4  501    0 -3.2652530084e+01 -1.0963813480e+01 +5.6801602090e-01 3.4767881286e+01 4.7000000000e+00 0.0000e+00 -1.0000e+00
       -5  1    4    4    0  501 -5.2815310628e+00 -1.8407335173e+01 -4.1769386691e+00 2.0155926553e+01 4.7000000000e+00 0.0000e+00 -1.0000e+00
        5  1    4    4  502    0 +1.0960352460e+01 +1.3066274335e+01 +1.4616329441e+01 2.2947416790e+01 4.7000000000e+00 0.0000e+00 1.0000e+00
       -5  1    4    4    0  502 +3.9601251660e+01 +1.2370205523e+01 +3.9852491981e+01 5.7719946594e+01 4.7000000000e+00 0.0000e+00 1.0000e+00
</event>
<event>
10      1 +4.6527485e-10 2.40000000e+02 7.81860800e-03 1.03012300e-01
      -11 -1    0    0    0    0 +0.0000000000e+00 +0.0000000000e+00 +1.2000000000e+02 1.2000000000e+02 0.0000000000e+00 0.0000e+00 -1.0000e+00
       11 -1    0    0    0    0 -0.0000000000e+00 -0.0000000000e+00 -1.2000000000e+02 1.2000000000e+02 0.0000000000e+00 0.0000e+00 1.0000e+00
       23  2    1    2    0    0 +2.5291702300e+01 -1.3530414239e+01 +4.1854434148e+01 1.0509278139e+02 9.2032367827e+01 0.0000e+00 0.0000e+00
       25  2    1    2    0    0 -2.5291702300e+01 +1.3530414239e+01 -4.1854434148e+01 1.3490721861e+02 1.2500168663e+02 0.0000e+00 0.0000e+00
      -11  1    3    3    0    0 +3.2001620238e+01 -1.3549226848e+01 +6.8931830044e+01 7.7196388771e+01 0.0000000000e+00 0.0000e+00 -1.0000e+00
       11  1    3    3    0    0 -6.7099179374e+00 +1.8812608925e-02 -2.7077395896e+01 2.7896392619e+01 0.0000000000e+00 0.0000e+00 1.0000e+00
        5  1    4    4  501    0 -1.0314572438e+01 -2.6951873168e+01 -1.2096702621e+01 3.1641967166e+01 4.7000000000e+00 0.0000e+00 1.0000e+00
       -5  1    4    4    0  502 -7.2334910126e-01 +4.8718715147e+01 +1.6054814104e+00 4.8976565927e+01 4.7000000000e+00 0.0000e+00 -1.0000e+00
        5  1    4    4  502    0 -8.6202666883e+00 +1.1108228834e+01 +2.0725825189e+00 1.4969547218e+01 4.7000000000e+00 0.0000e+00 1.0000e+00
       -5  1    4    4    0  501 -5.6335140722e+00 -1.9344656574e+01 -3.3435795456e+01 3.9319138299e+01 4.7000000000e+00 0.0000e+00 1.0000e+00
</event>
<event>
10      1 +4.6527485e-10 2.40000000e+02 7.81860800e-03 1.03012300e-01
      -11 -1    0    0    0    0 +0.0000000000e+00 +0.0000000000e+00 +1.2000000000e+02 1.2000000000e+02 0.0000000000e+00 0.0000e+00 -1.0000e+00
       11 -1    0    0    0    0 -0.0000000000e+00 -0.0000000000e+00 -1.2000000000e+02 1.2000000000e+02 0.0000000000e+00 0.0000e+00 1.0000e+00
       23  2    1    2    0    0 -3.0095063851e+01 +3.2644962824e+01 +2.8633415479e+01 1.0429597143e+02 8.9924249833e+01 0.0000e+00 0.0000e+00
       25  2    1    2    0    0 +3.0095063851e+01 -3.2644962824e+01 -2.8633415479e+01 1.3570402857e+02 1.2499721766e+02 0.0000e+00 0.0000e+00
      -11  1    3    3    0    0 +6.9425089305e+00 -1.2378528288e+01 +4.2128084273e+01 4.4454492206e+01 0.0000000000e+00 0.0000e+00 -1.0000e+00
       11  1    3    3    0    0 -3.7037572782e+01 +4.5023491113e+01 -1.3494668794e+01 5.9841479221e+01 0.0000000000e+00 0.0000e+00 1.0000e+00
        5  1    4    4  501    0 -1.3535714901e+01 +2.4362881487e+01 -5.3619032330e+00 2.8768134776e+01 4.7000000000e+00 0.0000e+00 1.0000e+00
       -5  1    4    4    0  502 +3.8375999912e+01 -5.0785142852e+01 -1.0562003193e+01 6.4695394081e+01 4.7000000000e+00 0.0000e+00 -1.0000e+00
        5  1    4    4  502    0 +8.6194190115e+00 -1.5672848991e+01 +6.8829467944e+00 1.9733158292e+01 4.7000000000e+00 0.0000e+00 -1.0000e+00
       -5  1    4    4    0  501 -3.3646401716e+00 +9.4501475325e+00 -1.9592455847e+01 2.2507341424e+01 4.7000000000e+00 0.0000e+00 1.0000e+00
</event>
<event>
10      1 +4.6527485e-10 2.40000000e+02 7.81860800e-03 1.03012300e-01
      -11 -1    0    0    0    0 +0.0000000000e+00 +0.0000000000e+00 +1.2000000000e+02 1.2000000000e+02 0.0000000000e+00 0.0000e+00 1.0000e+00
       11 -1    0    0    0    0 -0.0000000000e+00 -0.0000000000e+00 -1.2000000000e+02 1.2000000000e+02 0.0000000000e+00 0.0000e+00 -1.0000e+00
       23  2    1    2    0    0 -2.8208879714e+01 -3.8770514045e+01 +1.9263729735e+01 1.0474145230e+02 9.1108654326e+01 0.0000e+00 0.0000e+00
       25  2    1    2    0    0 +2.8208879714e+01 +3.8770514045e+01 -1.9263729735e+01 1.3525854770e+02 1.2499955915e+02 0.0000e+00 0.0000e+00
      -13  1    3    3    0    0 +3.2256151603e+01 -1.6242732329e+01 -3.5797320577e+00 3.6291874453e+01 0.0000000000e+00 0.0000e+00 -1.0000e+00
       13  1    3    3    0    0 -6.0465031316e+01 -2.2527781716e+01 +2.2843461793e+01 6.8449577850e+01 0.0000000000e+00 0.0000e+00 1.0000e+00
        5  1    4    4  501    0 +5.1818381906e+01 -5.3237810405e+00 -2.3928589193e+01 5.7516560474e+01 4.7000000000e+00 0.0000e+00 1.0000e+00
       -5  1    4    4    0  501 +9.3341632677e+00 -7.0644250715e-01 -1.3015040614e+01 1.6706494160e+01 4.7000000000e+00 0.0000e+00 1.0000e+00
        5  1    4    4  502    0 -5.9143454445e+00 +2.0113052917e+01 +7.3919681604e+00 2.2721038113e+01 4.7000000000e+00 0.0000e+00 1.0000e+00
       -5  1    4    4    0  502 -2.7029320016e+01 +2.4687684676e+01 +1.0287931911e+01 3.8314454951e+01 4.7000000000e+00 0.0000e+00 1.0000e+00
</event>
<event>
10      1 +4.6527485e-10 2.40000000e+02 7.81860800e-03 1.03012300e-01
      -11 -1    0    0    0    0 +0.0000000000e+00 +0.0000000000e+00 +1.2000000000e+02 1.2000000000e+02 0.0000000000e+00 0.0000e+00 -1.0000e+00
       11 -1    0    0    0    0 -0.0000000000e+00 -0.0000000000e+00 -1.2000000000e+02 1.2000000000e+02 0.0000000000e+00 0.0000e+00 1.0000e+00
       23  2    1    2    0    0 +4.4944948809e+01 +6.9926809489e+00 +2.0166546187e+01 1.0547278402e+02 9.2999314910e+01 0.0000e+00 0.0000e+00
       25  2    1    2    0    0 -4.4944948809e+01 -6.9926809489e+00 -2.0166546187e+01 1.3452721598e+02 1.2498774437e+02 0.0000e+00 0.0000e+00
      -13  1    3    3    0    0 -2.5293508441e+01 +1.0294701899e+01 +2.2099497718e+01 3.5130190091e+01 0.0000000000e+00 0.0000e+00 1.0000e+00
       13  1    3    3    0    0 +7.0238457250e+01 -3.3020209501e+00 -1.9329515309e+00 7.0342593930e+01 0.0000000000e+00 0.0000e+00 -1.0000e+00
        5  1    4    4  501    0 -3.5776137911e+00 +5.7834213906e+00 -6.9917680176e+00 1.0826915693e+01 4.7000000000e+00 0.0000e+00 -1.0000e+00
       -5  1    4    4    0  501 -6.5817908383e+01 -4.2681521871e+01 -2.8524456398e+00 7.8638004929e+01 4.7000000000e+00 0.0000e+00 -1.0000e+00
        5  1    4    4  502    0 +4.9575391331e+00 +1.4856330670e+01 +3.0720753584e+00 1.6637770351e+01 4.7000000000e+00 0.0000e+00 -1.0000e+00
       -5  1    4    4    0  502 +1.9493034231e+01 +1.5049088862e+01 -1.3394407888e+01 2.8424525006e+01 4.7000000000e+00 0.0000e+00 -1.0000e+00
</event>
<event>
10      1 +4.6527485e-10 2.40000000e+02 7.81860800e-03 1.03012300e-01
      -11 -1    0    0    0    0 +0.0000000000e+00 +0.0000000000e+00 +1.2000000000e+02 1.2000000000e+02 0.0000000000e+00 0.0000e+00 -1.0000e+00
       11 -1    0    0    0    0 -0.0000000000e+00 -0.0000000000e+00 -1.2000000000e+02 1.2000000000e+02 0.0000000000e+00 0.0000e+00 1.0000e+00
       23  2    1    2    0    0 +2.0144076149e+01 -4.0290887802e+01 +2.4557907341e+01 1.0488379206e+02 9.1478847718e+01 0.0000e+00 0.0000e+00
       25  2    1    2    0    0 -2.0144076149e+01 +4.0290887802e+01 -2.4557907341e+01 1.3511620794e+02 1.2499663752e+02 0.0000e+00 0.0000e+00
      -11  1    3    3    0    0 +3.7548918735e+01 -4.0475143786e+00 -2.1730563559e+01 4.3572021567e+01 0.0000000000e+00 0.0000e+00 1.0000e+00
       11  1    3    3    0    0 -1.7404842586e+01 -3.6243373424e+01 +4.6288470900e+01 6.1311770492e+01 0.0000000000e+00 0.0000e+00 -1.0000e+00
        5  1    4    4  501    0 -3.8137794602e+01 +2.4913110720e+00 -2.1363071735e+01 4.4035994844e+01 4.7000000000e+00 0.0000e+00 1.0000e+00
       -5  1    4    4    0  501 -1.3530568755e+01 -4.7218815632e+00 -2.2123132132e+01 2.6774903018e+01 4.7000000000e+00 0.0000e+00 1.0000e+00
        5  1    4    4  502    0 +7.9766504851e-01 +1.4648404206e+01 -4.9850962996e+00 1.6191145741e+01 4.7000000000e+00 0.0000e+00 1.0000e+00
       -5  1    4    4    0  502 +3.0726622159e+01 +2.7873054088e+01 +2.3913392825e+01 4.8114164337e+01 4.7000000000e+00 0.0000e+00 1.0000e+00
</event>
<event>
10      1 +4.6527485e-10 2.40000000e+02 7.81860800e-03 1.03012300e-01
      -11 -1    0    0    0    0 +0.0000000000e+00 +0.0000000000e+00 +1.2000000000e+02 1.2000000000e+02 0.0000000000e+00 0.0000e+00 -1.0000e+00
       11 -1    0    0    0    0 -0.0000000000e+00 -0.0000000000e+00 -1.2000000000e+02 1.2000000000e+02 0.0000000000e+00 0.0000e+00 1.0000e+00
       23  2    1    2    0    0 +3.3846000706e+01 -1.7997319732e+01 -3.2926208832e+01 1.0517044421e+02 9.2234656314e+01 0.0000e+00 0.0000e+00
       25  2    1    2    0    0 -3.3846000706e+01 +1.7997319732e+01 +3.2926208832e+01 1.3482955579e+02 1.2500167441e+02 0.0000e+00 0.0000e+00
      -13  1    3    3    0    0 +3.2721297771e+01 +2.6186485539e+01 +1.0503561546e+01 4.3205788476e+01 0.0000000000e+00 0.0000e+00 -1.0000e+00
       13  1    3    3    0    0 +1.1247029344e+00 -4.4183805270e+01 -4.3429770378e+01 6.1964655731e+01 0.0000000000e+00 0.0000e+00 1.0000e+00
        5  1    4    4  501    0 -4.7518204505e+01 +5.0878136821e+00 -3.0251713436e+01 5.6754927303e+01 4.7000000000e+00 0.0000e+00 1.0000e+00
       -5  1    4    4    0  501 -2.6196110841e+00 -1.9856227259e+00 -9.0285955092e-01 5.8060498801e+00 4.7000000000e+00 0.0000e+00 1.0000e+00
        5  1    4    4  502    0 +1.2095645610e+01 +5.2510665846e+00 +1.0594930173e+01 1.7556220788e+01 4.7000000000e+00 0.0000e+00 1.0000e+00
       -5  1    4    4    0  502 +4.1961692729e+00 +9.6440621907e+00 +5.3485851645e+01 5.4712357821e+01 4.7000000000e+00 0.0000e+00 1.0000e+00
</event>
<event>
10      1 +4.6527485e-10 2.40000000e+02 7.81860800e-03 1.03012300e-01
      -11 -1    0    0    0    0 +0.0000000000e+00 +0.0000000000e+00 +1.2000000000e+02 1.2000000000e+02 0.0000000000e+00 0.0000e+00 -1.0000e+00
       11 -1    0    0    0    0 -0.0000000000e+00 -0.0000000000e+00 -1.2000000000e+02 1.2000000000e+02 0.0000000000e+00 0.0000e+00 1.0000e+00
       23  2    1    2    0    0 -4.0026923938e+00 +2.8984017824e+01 -4.3776211566e+01 1.0436864388e+02 9.0113052832e+01 0.0000e+00 0.0000e+00
       25  2    1    2    0    0 +4.0026923938e+00 -2.8984017824e+01 +4.3776211566e+01 1.3563135612e+02 1.2499365275e+02 0.0000e+00 0.0000e+00
      -13  1    3    3    0    0 +4.0947152466e+01 +1.8246713362e+01 -3.6021826072e+01 5.7508119402e+01 0.0000000000e+00 0.0000e+00 1.0000e+00
       13  1    3    3    0    0 -4.4949844860e+01 +1.0737304462e+01 -7.7543854947e+00 4.6860524479e+01 0.0000000000e+00 0.0000e+00 -1.0000e+00
        5  1    4    4  501    0 -1.3042684370e+01 -3.8440429292e+00 +2.9406747310e+01 3.2737365028e+01 4.7000000000e+00 0.0000e+00 -1.0000e+00
       -5  1    4    4    0  501 -3.0724862548e+01 -1.1122736672e+01 +3.1319077335e+01 4.5505022303e+01 4.7000000000e+00 0.0000e+00 -1.0000e+00
        5  1    4    4  502    0 +5.6867310688e-01 +7.3809674017e-02 -4.1021021003e+00 6.2646690744e+00 4.7000000000e+00 0.0000e+00 -1.0000e+00
       -5  1    4    4    0  502 +4.7201566205e+01 -1.4091047897e+01 -1.2847510978e+01 5.1124299715e+01 4.7000000000e+00 0.0000e+00 -1.0000e+00
</event>
<event>
10      1 +4.6527485e-10 2.40000000e+02 7.81860800e-03 1.03012300e-01
      -11 -1    0    0    0    0 +0.0000000000e+00 +0.0000000000e+00 +1.2000000000e+02 1.2000000000e+02 0.0000000000e+00 0.0000e+00 1.0000e+00
       11 -1    0    0    0    0 -0.0000000000e+00 -0.0000000000e+00 -1.2000000000e+02 1.2000000000e+02 0.0000000000e+00 0.0000e+00 -1.0000e+00
       23  2    1    2    0    0 -1.8954777647e+01 +2.8329736163e+01 -3.9095503482e+01 1.0466695505e+02 9.0911250898e+01 0.0000e+00 0.0000e+00
       25  2    1    2    0    0 +1.8954777647e+01 -2.8329736163e+01 +3.9095503482e+01 1.3533304495e+02 1.2499886846e+02 0.0000e+00 0.0000e+00
      -13  1    3    3    0    0 -3.3295214574e+01 +2.3466448387e+01 +1.8771833647e+01 4.4851167787e+01 0.0000000000e+00 0.0000e+00 1.0000e+00
       13  1    3    3    0    0 +1.4340436926e+01 +4.8632877762e+00 -5.7867337129e+01 5.9815787261e+01 0.0000000000e+00 0.0000e+00 -1.0000e+00
        5  1    4    4  501    0 -5.0336507689e+00 -2.9279021361e+01 +1.8046563720e+01 3.5076590399e+01 4.7000000000e+00 0.0000e+00 1.0000e+00
       -5  1    4    4    0  502 +1.0515302297e+01 +2.2738245659e+01 -1.1434140018e+01 2.7936158576e+01 4.7000000000e+00 0.0000e+00 -1.0000e+00
        5  1    4    4  502    0 -1.3374036342e-01 +1.9809375900e+01 +7.4416541305e+00 2.1677118726e+01 4.7000000000e+00 0.0000e+00 -1.0000e+00
       -5  1    4    4    0  501 +1.3606866482e+01 -4.1598336361e+01 +2.5041425650e+01 5.0643177251e+01 4.7000000000e+00 0.0000e+00 1.0000e+00
</event>
<event>
10      1 +4.6527485e-10 2.40000000e+02 7.81860800e-03 1.03012300e-01
      -11 -1    0    0    0    0 +0.0000000000e+00 +0.0000000000e+00 +1.2000000000e+02 1.2000000000e+02 0.0000000000e+00 0.0000e+00 1.0000e+00
       11 -1    0    0    0    0 -0.0000000000e+00 -0.0000000000e+00 -1.2000000000e+02 1.2000000000e+02 0.0000000000e+00 0.0000e+00 -1.0000e+00
       23  2    1    2    0    0 -4.7233854333e+01 -4.5758342790e+00 +1.9137085345e+01 1.0493269235e+02 9.1611498365e+01 0.0000e+00 0.0000e+00
       25  2    1    2    0    0 +4.7233854333e+01 +4.5758342790e+00 -1.9137085345e+01 1.3506730765e+02 1.2499989723e+02 0.0000e+00 0.0000e+00
      -13  1    3    3    0    0 -4.5151472689e+01 +3.7997149392e+01 +2.1584357471e+00 5.9051652752e+01 0.0000000000e+00 0.0000e+00 1.0000e+00
       13  1    3    3    0    0 -2.0823816438e+00 -4.2572983671e+01 +1.6978649598e+01 4.5881039593e+01 0.0000000000e+00 0.0000e+00 -1.0000e+00
        5  1    4    4  501    0 +1.8793198725e+01 -2.2329480866e+01 +4.2346672100e+00 2.9863228902e+01 4.7000000000e+00 0.0000e+00 1.0000e+00
       -5  1    4    4    0  502 -2.0914639356e+01 +1.1140944697e+01 -2.1646985371e+01 3.2438014178e+01 4.7000000000e+00 0.0000e+00 1.0000e+00
        5  1    4    4  502    0 +3.6259664241e+01 +3.2466366214e+01 +6.8962617503e+00 4.9380933690e+01 4.7000000000e+00 0.0000e+00 1.0000e+00
       -5  1    4    4    0  501 +1.3095630724e+01 -1.6701995766e+01 -8.6210289342e+00 2.3385130885e+01 4.7000000000e+00 0.0000e+00 1.0000e+00
</event>
<event>
10      1 +4.6527485e-10 2.40000000e+02 7.81860800e-03 1.03012300e-01
      -11 -1    0    0    0    0 +0.0000000000e+00 +0.0000000000e+00 +1.2000000000e+02 1.2000000000e+02 0.0000000000e+00 0.0000e+00 1.0000e+00
       11 -1    0    0    0    0 -0.0000000000e+00 -0.0000000000e+00 -1.2000000000e+02 1.2000000000e+02 0.0000000000e+00 0.0000e+00 -1.0000e+00
       23  2    1    2    0    0 +3.8154279972e+01 -2.8908325360e+01 -2.6444386115e+01 1.0356161140e+02 8.7944649886e+01 0.0000e+00 0.0000e+00
       25  2    1    2    0    0 -3.8154279972e+01 +2.8908325360e+01 +2.6444386115e+01 1.3643838860e+02 1.2499875188e+02 0.0000e+00 0.0000e+00
      -13  1    3    3    0    0 +7.9913390550e+00 +3.0915662654e+01 -1.1643992543e+00 3.1953020559e+01 0.0000000000e+00 0.0000e+00 1.0000e+00
       13  1    3    3    0    0 +3.0162940917e+01 -5.9823988014e+01 -2.5279986861e+01 7.1608590842e+01 0.0000000000e+00 0.0000e+00 -1.0000e+00
        5  1    4    4  501    0 +2.9518629786e+01 +3.4105186061e+01 +5.1933886383e+00 4.5646188300e+01 4.7000000000e+00 0.0000e+00 1.0000e+00
       -5  1    4    4    0  502 -4.9458716263e+00 -3.9153425569e+00 +3.3270118336e+00 8.5411100697e+00 4.7000000000e+00 0.0000e+00 1.0000e+00
        5  1    4    4  502    0 -5.9194867909e+01 -1.2232551561e+01 +2.3086611926e-01 6.0628466941e+01 4.7000000000e+00 0.0000e+00 1.0000e+00
       -5  1    4    4    0  501 -3.5321702233e+00 +1.0951033417e+01 +1.7693119524e+01 2.1622623288e+01 4.7000000000e+00 0.0000e+00 1.0000e+00
</event>
<event>
10      1 +4.6527485e-10 2.40000000e+02 7.81860800e-03 1.03012300e-01
      -11 -1    0    0    0    0 +0.0000000000e+00 +0.0000000000e+00 +1.2000000000e+02 1.2000000000e+02 0.0000000000e+00 0.0000e+00 -1.0000e+00
       11 -1    0    0    0    0 -0.0000000000e+00 -0.0000000000e+00 -1.2000000000e+02 1.2000000000e+02 0.0000000000e+00 0.0000e+00 1.0000e+00
       23  2    1    2    0    0 -2.3695271920e+01 -2.4263005218e+01 +2.7238061721e+01 1.0767758443e+02 9.8500714964e+01 0.0000e+00 0.0000e+00
       25  2    1    2    0    0 +2.3695271920e+01 +2.4263005218e+01 -2.7238061721e+01 1.3232241557e+02 1.2496859735e+02 0.0000e+00 0.0000e+00
      -11  1    3    3    0    0 -3.5836212544e+01 -7.8307477348e+00 +5.9259223287e+01 6.9693688983e+01 0.0000000000e+00 0.0000e+00 -1.0000e+00
       11  1    3    3    0    0 +1.2140940623e+01 -1.6432257483e+01 -3.2021161565e+01 3.7983895445e+01 0.0000000000e+00 0.0000e+00 1.0000e+00
        5  1    4    4  501    0 +1.0448651168e+00 +2.4779337450e+01 -3.4731481933e+01 4.2935686146e+01 4.7000000000e+00 0.0000e+00 -1.0000e+00
       -5  1    4    4    0  502 +2.1856975069e+01 -8.9509240649e+00 +1.2389398926e+01 2.7081979368e+01 4.7000000000e+00 0.0000e+00 1.0000e+00
        5  1    4    4  502    0 +9.9877096329e+00 -2.1457343378e+01 +1.1445604625e+01 2.6706998966e+01 4.7000000000e+00 0.0000e+00 1.0000e+00
       -5  1    4    4    0  501 -9.1942778982e+00 +2.9891935211e+01 -1.6341583340e+01 3.5597751091e+01 4.7000000000e+00 0.0000e+00 -1.0000e+00
</event>
<event>
10      1 +4.6527485e-10 2.40000000e+02 7.81860800e-03 1.03012300e-01
      -11 -1    0    0    0    0 +0.0000000000e+00 +0.0000000000e+00 +1.2000000000e+02 1.2000000000e+02 0.0000000000e+00 0.0000e+00 1.0000e+00
       11 -1    0    0    0    0 -0.0000000000e+00 -0.0000000000e+00 -1.2000000000e+02 1.2000000000e+02 0.0000000000e+00 0.0000e+00 -1.0000e+00
       23  2    1    2    0    0 -2.2009032521e+01 -3.4929969414e+01 -3.1320910135e+01 1.0468257876e+02 9.0955717847e+01 0.0000e+00 0.0000e+00
       25  2    1    2    0    0 +2.2009032521e+01 +3.4929969414e+01 +3.1320910135e+01 1.3531742124e+02 1.2500121920e+02 0.0000e+00 0.0000e+00
      -11  1    3    3    0    0 +6.1673841403e+00 -6.0830640855e+01 -2.4179297936e+01 6.5749843671e+01 0.0000000000e+00 0.0000e+00 -1.0000e+00
       11  1    3    3    0    0 -2.8176416661e+01 +2.5900671442e+01 -7.1416121991e+00 3.8932735093e+01 0.0000000000e+00 0.0000e+00 1.0000e+00
        5  1    4    4  501    0 +1.8455882535e+01 +2.7784723948e+01 +2.7569741751e+01 4.3529198766e+01 4.7000000000e+00 0.0000e+00 1.0000e+00
       -5  1    4    4    0  502 +2.0306564269e+01 +1.1746638798e+01 +9.3476584254e+00 2.5686743537e+01 4.7000000000e+00 0.0000e+00 1.0000e+00
        5  1    4    4  502    0 -3.3838817493e+01 -2.0968027654e+01 -1.0606886666e+01 4.1464681330e+01 4.7000000000e+00 0.0000e+00 1.0000e+00
       -5  1    4    4    0  501 +1.7085403209e+01 +1.6366634321e+01 +5.0103966254e+00 2.4636797604e+01 4.7000000000e+00 0.0000e+00 1.0000e+00
</event>
<event>
10      1 +4.6527485e-10 2.40000000e+02 7.81860800e-03 1.03012300e-01
      -11 -1    0    0    0    0 +0.0000000000e+00 +0.0000000000e+00 +1.2000000000e+02 1.2000000000e+02 0.0000000000e+00 0.0000e+00 -1.0000e+00
       11 -1    0    0    0    0 -0.0000000000e+00 -0.0000000000e+00 -1.2000000000e+02 1.2000000000e+02 0.0000000000e+00 0.0000e+00 1.0000e+00
       23  2    1    2    0    0 +4.4789458520e+01 +2.2188654022e+01 +1.5688890963e+01 1.0446647033e+02 9.0380695739e+01 0.0000e+00 0.0000e+00
       25  2    1    2    0    0 -4.4789458520e+01 -2.2188654022e+01 -1.5688890963e+01 1.3553352967e+02 1.2499905761e+02 0.0000e+00 0.0000e+00
      -13  1    3    3    0    0 -1.9826551747e+01 +5.0678011803e+00 -2.0064841152e+01 2.8659598975e+01 0.0000000000e+00 0.0000e+00 1.0000e+00
       13  1    3    3    0    0 +6.4616010267e+01 +1.7120852842e+01 +3.5753732114e+01 7.5806871357e+01 0.0000000000e+00 0.0000e+00 -1.0000e+00
        5  1    4    4  501    0 -2.0485029641e+01 -1.2667811933e+01 +5.6330590313e-01 2.4546226026e+01 4.7000000000e+00 0.0000e+00 -1.0000e+00
       -5  1    4    4    0  502 +9.6459891785e+00 -2.4256035153e+01 -9.9502798868e+00 2.8328403033e+01 4.7000000000e+00 0.0000e+00 1.0000e+00
        5  1    4    4  502    0 +8.0651763770e+00 +1.6031543338e+00 -3.0688115893e+01 3.2116469776e+01 4.7000000000e+00 0.0000e+00 1.0000e+00
       -5  1    4    4    0  501 -4.2015594435e+01 +1.3132038731e+01 +2.4386198914e+01 5.0542430832e+01 4.7000000000e+00 0.0000e+00 -1.0000e+00
</event>
<event>
10      1 +4.6527485e-10 2.40000000e+02 7.81860800e-03 1.03012300e-01
      -11 -1    0    0    0    0 +0.0000000000e+00 +0.0000000000e+00 +1.2000000000e+02 1.2000000000e+02 0.0000000000e+00 0.0000e+00 1.0000e+00
       11 -1    0    0    0    0 -0.0000000000e+00 -0.0000000000e+00 -1.2000000000e+02 1.2000000000e+02 0.0000000000e+00 0.0000e+00 -1.0000e+00
       23  2    1    2    0    0 -3.3306783397e+01 +3.9251695072e+01 -5.4753901736e+00 1.0470344494e+02 9.1009857146e+01 0.0000e+00 0.0000e+00
       25  2    1    2    0    0 +3.3306783397e+01 -3.9251695072e+01 +5.4753901736e+00 1.3529655506e+02 1.2500056211e+02 0.0000e+00 0.0000e+00
      -11  1    3    3    0    0 -3.2222438864e+01 +4.8851151035e+01 -3.8662274115e+01 7.0139090125e+01 0.0000000000e+00 0.0000e+00 -1.0000e+00
       11  1    3    3    0    0 -1.0843445329e+00 -9.5994559631e+00 +3.3186883941e+01 3.4564354812e+01 0.0000000000e+00 0.0000e+00 1.0000e+00
        5  1    4    4  501    0 +2.4132860838e+00 -5.6427031390e+01 +1.4141323934e+01 5.8411478870e+01 4.7000000000e+00 0.0000e+00 1.0000e+00
       -5  1    4    4    0  501 +3.7611004422e+00 -7.9720750379e+00 +1.3714714469e+01 1.6967122617e+01 4.7000000000e+00 0.0000e+00 1.0000e+00
        5  1    4    4  502    0 +1.1985161291e+00 -1.0223814058e+01 -6.4061206725e+00 1.3003507099e+01 4.7000000000e+00 0.0000e+00 1.0000e+00
       -5  1    4    4    0  502 +2.5933880742e+01 +3.5371225414e+01 -1.5974527557e+01 4.6914446477e+01 4.7000000000e+00 0.0000e+00 1.0000e+00
</event>
<event>
10      1 +4.6527485e-10 2.40000000e+02 7.81860800e-03 1.03012300e-01
      -11 -1    0    0    0    0 +0.0000000000e+00 +0.0000000000e+00 +1.2000000000e+02 1.2000000000e+02 0.0000000000e+00 0.0000e+00 1.0000e+00
       11 -1    0    0    0    0 -0.0000000000e+00 -0.0000000000e+00 -1.2000000000e+02 1.2000000000e+02 0.0000000000e+00 0.0000e+00 -1.0000e+00
       23  2    1    2    0    0 -1.0836680618e+01 +3.1906809539e+01 +2.8035056839e+01 1.0754042809e+02 9.8201329527e+01 0.0000e+00 0.0000e+00
       25  2    1    2    0    0 +1.0836680618e+01 -3.1906809539e+01 -2.8035056839e+01 1.3245957191e+02 1.2499638249e+02 0.0000e+00 0.0000e+00
      -13  1    3    3    0    0 +2.5239602222e+01 +4.5549345234e+01 -1.0385238589e+01 5.3100221771e+01 0.0000000000e+00 0.0000e+00 -1.0000e+00
       13  1    3    3    0    0 -3.6076282841e+01 -1.3642535694e+01 +3.8420295428e+01 5.4440206323e+01 0.0000000000e+00 0.0000e+00 1.0000e+00
        5  1    4    4  501    0 -5.2021105999e+00 +1.1688294317e+00 +3.0314834479e+00 7.7270957564e+00 4.7000000000e+00 0.0000e+00 1.0000e+00
       -5  1    4    4    0  502 +3.3409632903e+01 +6.4333227928e+00 -5.2661204282e+01 6.2871962346e+01 4.7000000000e+00 0.0000e+00 1.0000e+00
        5  1    4    4  502    0 +2.6904498856e+00 -9.9706780825e+00 -9.0962939993e+00 1.4542541268e+01 4.7000000000e+00 0.0000e+00 1.0000e+00
       -5  1    4    4    0  501 -2.0061291570e+01 -2.9538283681e+01 +3.0690957994e+01 4.7317972536e+01 4.7000000000e+00 0.0000e+00 1.0000e+00
</event>
<event>
10      1 +4.6527485e-10 2.40000000e+02 7.81860800e-03 1.03012300e-01
      -11 -1    0    0    0    0 +0.0000000000e+00 +0.0000000000e+00 +1.2000000000e+02 1.2000000000e+02 0.0000000000e+00 0.0000e+00 1.0000e+00
       11 -1    0    0    0    0 -0.0000000000e+00 -0.0000000000e+00 -1.2000000000e+02 1.2000000000e+02 0.0000000000e+00 0.0000e+00 -1.0000e+00
       23  2    1    2    0    0 +2.1844733678e+01 +4.5967978957e+01 -6.2225000677e+00 1.0490221845e+02 9.1517804005e+01 0.0000e+00 0.0000e+00
       25  2    1    2    0    0 -2.1844733678e+01 -4.5967978957e+01 +6.2225000677e+00 1.3509778155e+02 1.2498977396e+02 0.0000e+00 0.0000e+00
      -11  1    3    3    0    0 -1.5322600890e+00 -2.7027615414e+01 +4.7140496043e+00 2.7478392959e+01 0.0000000000e+00 0.0000e+00 1.0000e+00
       11  1    3    3    0    0 +2.3376993767e+01 +7.2995594370e+01 -1.0936549672e+01 7.7423825492e+01 0.0000000000e+00 0.0000e+00 -1.0000e+00
        5  1    4    4  501    0 -1.7789286673e+01 -4.3911005729e+01 -3.5507811378e+01 5.9393011485e+01 4.7000000000e+00 0.0000e+00 1.0000e+00
       -5  1    4    4    0  502 +4.0880514669e+00 -9.6608663864e+00 -1.5763096842e+00 1.1602553872e+01 4.7000000000e+00 0.0000e+00 1.0000e+00
        5  1    4    4  502    0 +6.9330725316e-01 +7.8355168347e+00 +5.0785505029e+01 5.1605557066e+01 4.7000000000e+00 0.0000e+00 1.0000e+00
       -5  1    4    4    0  501 -8.8368057244e+00 -2.3162367619e-01 -7.4788838994e+00 1.2496659126e+01 4.7000000000e+00 0.0000e+00 -1.0000e+00
</event>
<event>
10      1 +4.6527485e-10 2.40000000e+02 7.81860800e-03 1.03012300e-01
      -11 -1    0    0    0    0 +0.0000000000e+00 +0.0000000000e+00 +1.2000000000e+02 1.2000000000e+02 0.0000000000e+00 0.0000e+00 1.0000e+00
       11 -1    0    0    0    0 -0.0000000000e+00 -0.0000000000e+00 -1.2000000000e+02 1.2000000000e+02 0.0000000000e+00 0.0000e+00 -1.0000e+00
       23  2    1    2    0    0 +5.2553042791e+01 +9.3952711707e+00 -5.0425264059e+00 1.0398246183e+02 8.9088898684e+01 0.0000e+00 0.0000e+00
       25  2    1    2    0    0 -5.2553042791e+01 -9.3952711707e+00 +5.0425264059e+00 1.3601753817e+02 1.2500100076e+02 0.0000e+00 0.0000e+00
      -11  1    3    3    0    0 +9.7828105414e+00 +4.6044998349e+01 -7.1790021374e+00 4.7617048698e+01 0.0000000000e+00 0.0000e+00 1.0000e+00
       11  1    3    3    0    0 +4.2770232250e+01 -3.6649727178e+01 +2.1364757315e+00 5.6365413132e+01 0.0000000000e+00 0.0000e+00 -1.0000e+00
        5  1    4    4  501    0 +3.2381628558e+01 -8.3964854613e+00 -1.2999408477e+01 3.6195931497e+01 4.7000000000e+00 0.0000e+00 -1.0000e+00
       -5  1    4    4    0  501 +3.4238149177e+00 -1.6883546335e+00 +4.1784324141e+00 7.3567892044e+00 4.7000000000e+00 0.0000e+00 -1.0000e+00
        5  1    4    4  502    0 -5.0342450396e+00 +2.7002955416e+00 -1.5875314750e+00 7.5660739697e+00 4.7000000000e+00 0.0000e+00 1.0000e+00
       -5  1    4    4    0  502 -8.3324241228e+01 -2.0107266175e+00 +1.5451033943e+01 8.4898743499e+01 4.7000000000e+00 0.0000e+00 1.0000e+00
</event>
<event>
10      1 +4.6527485e-10 2.40000000e+02 7.81860800e-03 1.03012300e-01
      -11 -1    0    0    0    0 +0.0000000000e+00 +0.0000000000e+00 +1.2000000000e+02 1.2000000000e+02 0.0000000000e+00 0.0000e+00 1.0000e+00
       11 -1    0    0    0    0 -0.0000000000e+00 -0.0000000000e+00 -1.2000000000e+02 1.2000000000e+02 0.0000000000e+00 0.0000e+00 -1.0000e+00
       23  2    1    2    0    0 -4.4341562280e+01 -1.8864258799e+01 +1.9831348262e+01 1.0457509822e+02 9.0667714146e+01 0.0000e+00 0.0000e+00
       25  2    1    2    0    0 +4.4341562280e+01 +1.8864258799e+01 -1.9831348262e+01 1.3542490178e+02 1.2499834896e+02 0.0000e+00 0.0000e+00
      -11  1    3    3    0    0 -6.0014821524e+01 -3.6500584022e+01 +3.2940976362e+01 7.7583370384e+01 0.0000000000e+00 0.0000e+00 1.0000e+00
       11  1    3    3    0    0 +1.5673259244e+01 +1.7636325223e+01 -1.3109628100e+01 2.6991727836e+01 0.0000000000e+00 0.0000e+00 -1.0000e+00
        5  1    4    4  501    0 +1.3421506744e+01 +2.6954692311e+00 -1.4616246521e+01 2.0570052504e+01 4.7000000000e+00 0.0000e+00 1.0000e+00
       -5  1    4    4    0  502 +3.3744540545e+00 +7.5694463153e+00 +3.7912587317e+01 3.9091402312e+01 4.7000000000e+00 0.0000e+00 -1.0000e+00
        5  1    4    4  502    0 +8.3371638422e+00 +9.5359049213e+00 +1.1447717457e+01 1.7708247191e+01 4.7000000000e+00 0.0000e+00 -1.0000e+00
       -5  1    4    4    0  501 +1.9208437640e+01 -9.3656166876e-01 -5.4575406515e+01 5.8055199772e+01 4.7000000000e+00 0.0000e+00 1.0000e+00
</event>
<event>
10      1 +4.6527485e-10 2.40000000e+02 7.81860800e-03 1.03012300e-01
      -11 -1    0    0    0    0 +0.0000000000e+00 +0.0000000000e+00 +1.2000000000e+02 1.2000000000e+02 0.0000000000e+00 0.0000e+00 1.0000e+00
       11 -1    0    0    0    0 -0.0000000000e+00 -0.0000000000e+00 -1.2000000000e+02 1.2000000000e+02 0.0000000000e+00 0.0000e+00 -1.0000e+00
       23  2    1    2    0    0 +1.5994191301e+01 -4.8648244992e+01 +3.0778531459e+00 1.0488023624e+02 9.1476362396e+01 0.0000e+00 0.0000e+00
       25  2    1    2    0    0 -1.5994191301e+01 +4.8648244992e+01 -3.0778531459e+00 1.3511976376e+02 1.2500164592e+02 0.0000e+00 0.0000e+00
      -11  1    3    3    0    0 +1.7447034553e+01 -7.3628956057e+01 -1.0529254283e+01 7.6396906878e+01 0.0000000000e+00 0.0000e+00 -1.0000e+00
       11  1    3    3    0    0 -1.4528432518e+00 +2.4980711065e+01 +1.3607107429e+01 2.8483329360e+01 0.0000000000e+00 0.0000e+00 1.0000e+00
        5  1    4    4  501    0 +1.4660740279e+01 +1.8565763646e+01 +9.6542426223e-01 2.4138080481e+01 4.7000000000e+00 0.0000e+00 -1.0000e+00
       -5  1    4    4    0  502 -8.9896062833e+00 -1.6839342119e+01 +7.1998040149e+00 2.0935702567e+01 4.7000000000e+00 0.0000e+00 -1.0000e+00
        5  1    4    4  502    0 -2.1503896327e+01 -1.4078179967e+01 -1.2247753989e+01 2.8856718216e+01 4.7000000000e+00 0.0000e+00 -1.0000e+00
       -5  1    4    4    0  501 -1.6142896928e-01 +6.1000003432e+01 +1.0046725661e+00 6.1189262498e+01 4.7000000000e+00 0.0000e+00 -1.0000e+00
</event>
<event>
10      1 +4.6527485e-10 2.40000000e+02 7.81860800e-03 1.03012300e-01
      -11 -1    0    0    0    0 +0.0000000000e+00 +0.0000000000e+00 +1.2000000000e+02 1.2000000000e+02 0.0000000000e+00 0.0000e+00 -1.0000e+00
       11 -1    0    0    0    0 -0.0000000000e+00 -0.0000000000e+00 -1.2000000000e+02 1.2000000000e+02 0.0000000000e+00 0.0000e+00 1.0000e+00
       23  2    1    2    0    0 +5.1668729918e+01 +2.5666328351e+00 -5.4125488842e+00 1.0460912699e+02 9.0760831355e+01 0.0000e+00 0.0000e+00
       25  2    1    2    0    0 -5.1668729918e+01 -2.5666328351e+00 +5.4125488842e+00 1.3539087301e+02 1.2500059022e+02 0.0000e+00 0.0000e+00
      -11  1    3    3    0    0 +2.2738398407e+00 +3.9442602809e+01 -1.4934103146e+01 4.2236438069e+01 0.0000000000e+00 0.0000e+00 1.0000e+00
       11  1    3    3    0    0 +4.9394890077e+01 -3.6875969974e+01 +9.5215542621e+00 6.2372688918e+01 0.0000000000e+00 0.0000e+00 -1.0000e+00
        5  1    4    4  501    0 -4.0439329233e+01 +4.9624122754e+00 +3.8306970448e+00 4.1191371964e+01 4.7000000000e+00 0.0000e+00 -1.0000e+00
       -5  1    4    4    0  502 +2.7730268222e+01 -2.4712102426e+00 +1.2590005735e+01 3.0913959632e+01 4.7000000000e+00 0.0000e+00 1.0000e+00
        5  1    4    4  502    0 +6.6283464414e+00 +2.9303222170e-01 +9.7455699741e+00 1.2692004513e+01 4.7000000000e+00 0.0000e+00 1.0000e+00
       -5  1    4    4    0  501 -4.5588015348e+01 -5.3508670896e+00 -2.0753723870e+01 5.0593536904e+01 4.7000000000e+00 0.0000e+00 -1.0000e+00
</event>
<event>
10      1 +4.6527485e-10 2.40000000e+02 7.81860800e-03 1.03012300e-01
      -11 -1    0    0    0    0 +0.0000000000e+00 +0.0000000000e+00 +1.2000000000e+02 1.2000000000e+02 0.0000000000e+00 0.0000e+00 1.0000e+00
       11 -1    0    0    0    0 -0.0000000000e+00 -0.0000000000e+00 -1.2000000000e+02 1.2000000000e+02 0.0000000000e+00 0.0000e+00 -1.0000e+00
       23  2    1    2    0    0 -4.5542664508e+01 +1.7457159079e+01 -1.5339716698e+01 1.0494782437e+02 9.1650707785e+01 0.0000e+00 0.0000e+00
       25  2    1    2    0    0 +4.5542664508e+01 -1.7457159079e+01 +1.5339716698e+01 1.3505217563e+02 1.2499958616e+02 0.0000e+00 0.0000e+00
      -13  1    3    3    0    0 -3.5957058916e+01 -1.0418410819e+01 +3.1954438865e+01 4.9219300412e+01 0.0000000000e+00 0.0000e+00 1.0000e+00
       13  1    3    3    0    0 -9.5856055925e+00 +2.7875569898e+01 -4.7294155564e+01 5.5728523955e+01 0.0000000000e+00 0.0000e+00 -1.0000e+00
        5  1    4    4  501    0 +1.5555121331e+01 -1.5380510891e+01 -3.4173280619e+01 4.0846358751e+01 4.7000000000e+00 0.0000e+00 1.0000e+00
       -5  1    4    4    0  502 +1.7365435082e+01 +1.9606344918e+01 +3.3215554346e+01 4.2559724472e+01 4.7000000000e+00 0.0000e+00 1.0000e+00
        5  1    4    4  502    0 +1.3485494985e+01 -7.6594819457e-01 +2.4750240447e+01 2.8585129943e+01 4.7000000000e+00 0.0000e+00 1.0000e+00
       -5  1    4    4    0  501 -8.6338689008e-01 -2.0917044911e+01 -8.4527974755e+00 2.3060962467e+01 4.7000000000e+00 0.0000e+00 1.0000e+00
</event>
<event>
10      1 +4.6527485e-10 2.40000000e+02 7.81860800e-03 1.03012300e-01
      -11 -1    0    0    0    0 +0.0000000000e+00 +0.0000000000e+00 +1.2000000000e+02 1.2000000000e+02 0.0000000000e+00 0.0000e+00 1.0000e+00
       11 -1    0    0    0    0 -0.0000000000e+00 -0.0000000000e+00 -1.2000000000e+02 1.2000000000e+02 0.0000000000e+00 0.0000e+00 -1.0000e+00
       23  2    1    2    0    0 -2.0268159831e+01 +4.1729826095e+01 -3.1310935378e+01 1.0305326406e+02 8.6529901598e+01 0.0000e+00 0.0000e+00
       25  2    1    2    0    0 +2.0268159831e+01 -4.1729826095e+01 +3.1310935378e+01 1.3694673594e+02 1.2498742785e+02 0.0000e+00 0.0000e+00
      -11  1    3    3    0    0 -4.6914417837e+01 +5.1463510848e+01 -1.9434066695e+01 7.2298952261e+01 0.0000000000e+00 0.0000e+00 -1.0000e+00
       11  1    3    3    0    0 +2.6646258006e+01 -9.7336847528e+00 -1.1876868683e+01 3.0754311800e+01 0.0000000000e+00 0.0000e+00 1.0000e+00
        5  1    4    4  501    0 -8.0830007369e-01 +1.5577033255e+01 -6.3184559033e+00 1.7473127912e+01 4.7000000000e+00 0.0000e+00 1.0000e+00
       -5  1    4    4    0  501 +6.4711505597e+00 +2.1873299337e+00 -4.3732609077e-01 8.3030991753e+00 4.7000000000e+00 0.0000e+00 -1.0000e+00
        5  1    4    4  502    0 +4.6196300771e+01 -2.0658155004e+01 +5.1745327266e+00 5.1085451569e+01 4.7000000000e+00 0.0000e+00 -1.0000e+00
       -5  1    4    4    0  502 -3.1590991425e+01 -3.8836034280e+01 +3.2892184645e+01 6.0085057282e+01 4.7000000000e+00 0.0000e+00 1.0000e+00
</event>
<event>
10      1 +4.6527485e-10 2.40000000e+02 7.81860800e-03 1.03012300e-01
      -11 -1    0    0    0    0 +0.0000000000e+00 +0.0000000000e+00 +1.2000000000e+02 1.2000000000e+02 0.0000000000e+00 0.0000e+00 1.0000e+00
       11 -1    0    0    0    0 -0.0000000000e+00 -0.0000000000e+00 -1.2000000000e+02 1.2000000000e+02 0.0000000000e+00 0.0000e+00 -1.0000e+00
       23  2    1    2    0    0 +2.0802683164e+01 +6.3690737919e+00 -4.7435088029e+01 1.0454590340e+02 9.0589412256e+01 0.0000e+00 0.0000e+00
       25  2    1    2    0    0 -2.0802683164e+01 -6.3690737919e+00 +4.7435088029e+01 1.3545409660e+02 1.2499763191e+02 0.0000e+00 0.0000e+00
      -13  1    3    3    0    0 +4.6287661816e+01 -4.9693209140e+00 +3.2769580257e+00 4.6668835861e+01 0.0000000000e+00 0.0000e+00 1.0000e+00
       13  1    3    3    0    0 -2.5484978653e+01 +1.1338394706e+01 -5.0712046055e+01 5.7877067535e+01 0.0000000000e+00 0.0000e+00 -1.0000e+00
        5  1    4    4  501    0 -1.2620267835e+01 +9.3282607128e+00 +2.3717551762e+01 2.8825333818e+01 4.7000000000e+00 0.0000e+00 -1.0000e+00
       -5  1    4    4    0  501 -4.7124728420e+01 +8.4224661104e+00 +2.6303842801e+01 5.4823900902e+01 4.7000000000e+00 0.0000e+00 -1.0000e+00
        5  1    4    4  502    0 +4.0406775386e+01 -2.2253477806e+01 -1.3059429964e+00 4.6386638795e+01 4.7000000000e+00 0.0000e+00 1.0000e+00
       -5  1    4    4    0  502 -1.4644622949e+00 -1.8663228093e+00 -1.2803635378e+00 5.4182230879e+00 4.7000000000e+00 0.0000e+00 1.0000e+00
</event>
<event>
10      1 +4.6527485e-10 2.40000000e+02 7.81860800e-03 1.03012300e-01
      -11 -1    0    0    0    0 +0.0000000000e+00 +0.0000000000e+00 +1.2000000000e+02 1.2000000000e+02 0.0000000000e+00 0.0000e+00 1.0000e+00
       11 -1    0    0    0    0 -0.0000000000e+00 -0.0000000000e+00 -1.2000000000e+02 1.2000000000e+02 0.0000000000e+00 0.0000e+00 -1.0000e+00
       23  2    1    2    0    0 +4.5639013603e+01 -2.0342522513e+01 -1.5809684781e+01 1.0445842880e+02 9.0359722382e+01 0.0000e+00 0.0000e+00
       25  2    1    2    0    0 -4.5639013603e+01 +2.0342522513e+01 +1.5809684781e+01 1.3554157120e+02 1.2499933442e+02 0.0000e+00 0.0000e+00
      -11  1    3    3    0    0 -2.6968173191e+00 -3.2208172078e+01 -3.8067135738e+01 4.9937420794e+01 0.0000000000e+00 0.0000e+00 -1.0000e+00
       11  1    3    3    0    0 +4.8335830922e+01 +1.1865649565e+01 +2.2257450957e+01 5.4521008003e+01 0.0000000000e+00 0.0000e+00 1.0000e+00
        5  1    4    4  501    0 -1.6883447065e+00 -1.6426717019e+01 -1.0835330307e+00 1.7203243406e+01 4.7000000000e+00 0.0000e+00 -1.0000e+00
       -5  1    4    4    0  501 +1.3775336467e+01 -2.3195063454e+01 +1.6838265716e+01 3.2146353693e+01 4.7000000000e+00 0.0000e+00 -1.0000e+00
        5  1    4    4  502    0 -2.0608882489e+01 +1.1218299749e+01 -5.3001615622e+00 2.4510365140e+01 4.7000000000e+00 0.0000e+00 -1.0000e+00
       -5  1    4    4    0  502 -3.7117122875e+01 +4.8746003238e+01 +5.3551136573e+00 6.1681608964e+01 4.7000000000e+00 0.0000e+00 -1.0000e+00
</event>
<event>
10      1 +4.6527485e-10 2.40000000e+02 7.81860800e-03 1.03012300e-01
      -11 -1    0    0    0    0 +0.0000000000e+00 +0.0000000000e+00 +1.2000000000e+02 1.2000000000e+02 0.0000000000e+00 0.0000e+00 -1.0000e+00
       11 -1    0    0    0    0 -0.0000000000e+00 -0.0000000000e+00 -1.2000000000e+02 1.2000000000e+02 0.0000000000e+00 0.0000e+00 1.0000e+00
       23  2    1    2    0    0 +4.7808862647e+01 +9.8435149398e+00 +1.7565328707e+01 1.0466337501e+02 9.0902690622e+01 0.0000e+00 0.0000e+00
       25  2    1    2    0    0 -4.7808862647e+01 -9.8435149398e+00 -1.7565328707e+01 1.3533662499e+02 1.2499951663e+02 0.0000e+00 0.0000e+00
      -13  1    3    3    0    0 +4.7503514597e+01 +6.4207813091e+00 +5.1614917379e+01 7.0440826427e+01 0.0000000000e+00 0.0000e+00 -1.0000e+00
       13  1    3    3    0    0 +3.0534805047e-01 +3.4227336308e+00 -3.4049588672e+01 3.4222548585e+01 0.0000000000e+00 0.0000e+00 1.0000e+00
        5  1    4    4  501    0 +3.4903468983e+01 -1.9790245759e+01 -3.7442033218e+00 4.0571110815e+01 4.7000000000e+00 0.0000e+00 -1.0000e+00
       -5  1    4    4    0  501 -3.0857705260e+00 -6.2003647283e+00 +5.1199616700e+00 9.8117536661e+00 4.7000000000e+00 0.0000e+00 -1.0000e+00
        5  1    4    4  502    0 -5.4770126488e+01 +1.0159122672e+01 -6.9740547590e+00 5.6335619005e+01 4.7000000000e+00 0.0000e+00 1.0000e+00
       -5  1    4    4    0  502 -2.4856434617e+01 +5.9879728757e+00 -1.1967032296e+01 2.8618141501e+01 4.7000000000e+00 0.0000e+00 1.0000e+00
</event>
<event>
10      1 +4.6527485e-10 2.40000000e+02 7.81860800e-03 1.03012300e-01
      -11 -1    0    0    0    0 +0.0000000000e+00 +0.0000000000e+00 +1.2000000000e+02 1.2000000000e+02 0.0000000000e+00 0.0000e+00 1.0000e+00
       11 -1    0    0    0    0 -0.0000000000e+00 -0.0000000000e+00 -1.2000000000e+02 1.2000000000e+02 0.0000000000e+00 0.0000e+00 -1.0000e+00
       23  2    1    2    0    0 +2.0825027174e+00 -4.4246657999e+01 -2.6044050272e+01 1.0485454871e+02 9.1400657928e+01 0.0000e+00 0.0000e+00
       25  2    1    2    0    0 -2.0825027174e+00 +4.4246657999e+01 +2.6044050272e+01 1.3514545129e+02 1.2499558747e+02 0.0000e+00 0.0000e+00
      -13  1    3    3    0    0 -8.2925714250e-01 -2.8298771103e+01 -6.0488373634e+01 6.6785862712e+01 0.0000000000e+00 0.0000e+00 -1.0000e+00
       13  1    3    3    0    0 +2.9117598598e+00 -1.5947886895e+01 +3.4444323362e+01 3.8068686000e+01 0.0000000000e+00 0.0000e+00 1.0000e+00
        5  1    4    4  501    0 -2.1701410137e+01 +9.4444362169e+00 +6.1230515313e+00 2.4894383653e+01 4.7000000000e+00 0.0000e+00 -1.0000e+00
       -5  1    4    4    0  502 +2.0885230467e+01 +1.3464454743e+01 +8.7824488390e+00 2.6771361579e+01 4.7000000000e+00 0.0000e+00 -1.0000e+00
        5  1    4    4  502    0 +3.4420475383e+01 -4.5080804142e+00 +1.6719624815e+01 3.8816591408e+01 4.7000000000e+00 0.0000e+00 -1.0000e+00
       -5  1    4    4    0  501 -3.5686798430e+01 +2.5845847453e+01 -5.5810749131e+00 4.4663114647e+01 4.7000000000e+00 0.0000e+00 -1.0000e+00
</event>
<event>
10      1 +4.6527485e-10 2.40000000e+02 7.81860800e-03 1.03012300e-01
      -11 -1    0    0    0    0 +0.0000000000e+00 +0.0000000000e+00 +1.2000000000e+02 1.2000000000e+02 0.0000000000e+00 0.0000e+00 1.0000e+00
       11 -1    0    0    0    0 -0.0000000000e+00 -0.0000000000e+00 -1.2000000000e+02 1.2000000000e+02 0.0000000000e+00 0.0000e+00 -1.0000e+00
       23  2    1    2    0    0 -1.4674143207e+01 +4.1457425493e+01 -2.5158881266e+01 1.0512620188e+02 9.2111347883e+01 0.0000e+00 0.0000e+00
       25  2    1    2    0    0 +1.4674143207e+01 -4.1457425493e+01 +2.5158881266e+01 1.3487379812e+02 1.2499569394e+02 0.0000e+00 0.0000e+00
      -13  1    3    3    0    0 +1.6120477263e+01 +1.7921620799e+01 -5.2449457228e+01 5.7723477397e+01 0.0000000000e+00 0.0000e+00 -1.0000e+00
       13  1    3    3    0    0 -3.0794620470e+01 +2.3535804694e+01 +2.7290575963e+01 4.7402724488e+01 0.0000000000e+00 0.0000e+00 1.0000e+00
        5  1    4    4  501    0 -8.2007040578e+00 +2.0145759789e+00 +1.0466652399e+01 1.4246082825e+01 4.7000000000e+00 0.0000e+00 1.0000e+00
       -5  1    4    4    0  501 +6.2688284357e+00 +2.0341553697e+01 +4.0903252731e+01 4.6349143473e+01 4.7000000000e+00 0.0000e+00 1.0000e+00
        5  1    4    4  502    0 +1.3220840338e+01 -2.6908872503e+01 -2.0164567869e+01 3.6435941541e+01 4.7000000000e+00 0.0000e+00 1.0000e+00
       -5  1    4    4    0  502 +3.3851784913e+00 -3.6904682666e+01 -6.0464559947e+00 3.7842630276e+01 4.7000000000e+00 0.0000e+00 1.0000e+00
</event>
<event>
10      1 +4.6527485e-10 2.40000000e+02 7.81860800e-03 1.03012300e-01
      -11 -1    0    0    0    0 +0.0000000000e+00 +0.0000000000e+00 +1.2000000000e+02 1.2000000000e+02 0.0000000000e+00 0.0000e+00 1.0000e+00
       11 -1    0    0    0    0 -0.0000000000e+00 -0.0000000000e+00 -1.2000000000e+02 1.2000000000e+02 0.0000000000e+00 0.0000e+00 -1.0000e+00
       23  2    1    2    0    0 +5.0349424685e+01 +7.5068937805e+00 +7.4815844911e+00 1.0482547119e+02 9.1329005703e+01 0.0000e+00 0.0000e+00
       25  2    1    2    0    0 -5.0349424685e+01 -7.5068937805e+00 -7.4815844911e+00 1.3517452881e+02 1.2499904445e+02 0.0000e+00 0.0000e+00
      -13  1    3    3    0    0 -4.9640084758e+00 +1.2091540678e+01 -3.3416360973e+01 3.5881749077e+01 0.0000000000e+00 0.0000e+00 -1.0000e+00
       13  1    3    3    0    0 +5.5313433160e+01 -4.5846468974e+00 +4.0897945464e+01 6.8943722110e+01 0.0000000000e+00 0.0000e+00 1.0000e+00
        5  1    4    4  501    0 -1.4698368206e+01 +3.6253464496e+00 -1.1785862006e+00 1.5895415384e+01 4.7000000000e+00 0.0000e+00 -1.0000e+00
       -5  1    4    4    0  502 +2.2317735538e+01 -5.6592570095e+00 -1.2834613741e+01 2.6775470478e+01 4.7000000000e+00 0.0000e+00 1.0000e+00
        5  1    4    4  502    0 +4.7847985264e+00 -7.0675343747e+00 -2.1492509328e+01 2.3597929915e+01 4.7000000000e+00 0.0000e+00 1.0000e+00
       -5  1    4    4    0  501 -6.2753590543e+01 +1.5945511541e+00 +2.8024124779e+01 6.8905713036e+01 4.7000000000e+00 0.0000e+00 -1.0000e+00
</event>
<event>
10      1 +4.6527485e-10 2.40000000e+02 7.81860800e-03 1.03012300e-01
      -11 -1    0    0    0    0 +0.0000000000e+00 +0.0000000000e+00 +1.2000000000e+02 1.2000000000e+02 0.0000000000e+00 0.0000e+00 1.0000e+00
       11 -1    0    0    0    0 -0.0000000000e+00 -0.0000000000e+00 -1.2000000000e+02 1.2000000000e+02 0.0000000000e+00 0.0000e+00 -1.0000e+00
       23  2    1    2    0    0 +2.0108596694e+00 +4.0335571549e+01 -2.4619782135e+01 1.0634819490e+02 9.5251262444e+01 0.0000e+00 0.0000e+00
       25  2    1    2    0    0 -2.0108596694e+00 -4.0335571549e+01 +2.4619782135e+01 1.3365180510e+02 1.2500267775e+02 0.0000e+00 0.0000e+00
      -13  1    3    3    0    0 +4.1792792963e+01 +3.9772803937e+00 -3.0846926210e+01 5.2095961068e+01 0.0000000000e+00 0.0000e+00 -1.0000e+00
       13  1    3    3    0    0 -3.9781933293e+01 +3.6358291156e+01 +6.2271440756e+00 5.4252233831e+01 0.0000000000e+00 0.0000e+00 1.0000e+00
        5  1    4    4  501    0 -1.2523923174e+01 -4.1917064158e+01 +6.4047745311e+01 7.7705164556e+01 4.7000000000e+00 0.0000e+00 1.0000e+00
       -5  1    4    4    0  501 +7.1883530826e+00 -7.3070378781e+00 +1.1709432451e+00 1.1336945386e+01 4.7000000000e+00 0.0000e+00 1.0000e+00
        5  1    4    4  502    0 -4.5801098491e+00 +5.8507133040e+00 -1.8609929234e+01 2.0582218503e+01 4.7000000000e+00 0.0000e+00 -1.0000e+00
       -5  1    4    4    0  502 +7.9048202710e+00 +3.0378171822e+00 -2.1988977187e+01 2.4027476657e+01 4.7000000000e+00 0.0000e+00 -1.0000e+00
</event>
<event>
10      1 +4.6527485e-10 2.40000000e+02 7.81860800e-03 1.03012300e-01
      -11 -1    0    0    0    0 +0.0000000000e+00 +0.0000000000e+00 +1.2000000000e+02 1.2000000000e+02 0.0000000000e+00 0.0000e+00 1.0000e+00
       11 -1    0    0    0    0 -0.0000000000e+00 -0.0000000000e+00 -1.2000000000e+02 1.2000000000e+02 0.0000000000e+00 0.0000e+00 -1.0000e+00
       23  2    1    2    0    0 -2.1594480224e+01 +1.1205471693e+01 -4.5711654084e+01 1.0469871057e+02 9.0996596106e+01 0.0000e+00 0.0000e+00
       25  2    1    2    0    0 +2.1594480224e+01 -1.1205471693e+01 +4.5711654084e+01 1.3530128943e+02 1.2499999773e+02 0.0000e+00 0.0000e+00
      -11  1    3    3    0    0 +1.2344221334e+01 +2.4381267654e+00 +2.3759245205e+01 2.6885423470e+01 0.0000000000e+00 0.0000e+00 1.0000e+00
       11  1    3    3    0    0 -3.3938701559e+01 +8.7673449281e+00 -6.9470899289e+01 7.7813287096e+01 0.0000000000e+00 0.0000e+00 -1.0000e+00
        5  1    4    4  501    0 -7.7095326195e+00 -2.7412491484e+01 +1.8857479967e+01 3.4475732527e+01 4.7000000000e+00 0.0000e+00 1.0000e+00
       -5  1    4    4    0  501 +1.3150982516e+01 -3.5534230720e+01 +1.9903354832e+01 4.3056514345e+01 4.7000000000e+00 0.0000e+00 1.0000e+00
        5  1    4    4  502    0 +9.7065831940e+00 +2.2028147696e+01 -4.5109712320e+00 2.4937840918e+01 4.7000000000e+00 0.0000e+00 -1.0000e+00
       -5  1    4    4    0  502 +6.4464471334e+00 +2.9713102815e+01 +1.1461790516e+01 3.2831201644e+01 4.7000000000e+00 0.0000e+00 -1.0000e+00
</event>
<event>
10      1 +4.6527485e-10 2.40000000e+02 7.81860800e-03 1.03012300e-01
      -11 -1    0    0    0    0 +0.0000000000e+00 +0.0000000000e+00 +1.2000000000e+02 1.2000000000e+02 0.0000000000e+00 0.0000e+00 1.0000e+00
       11 -1    0    0    0    0 -0.0000000000e+00 -0.0000000000e+00 -1.2000000000e+02 1.2000000000e+02 0.0000000000e+00 0.0000e+00 -1.0000e+00
       23  2    1    2    0    0 +1.5708836500e+01 +9.9555549113e+00 +4.4903877230e+01 1.0588322155e+02 9.4069218120e+01 0.0000e+00 0.0000e+00
       25  2    1    2    0    0 -1.5708836500e+01 -9.9555549113e+00 -4.4903877230e+01 1.3411677845e+02 1.2500028581e+02 0.0000e+00 0.0000e+00
      -11  1    3    3    0    0 +5.5005494822e+01 +1.4998494965e+00 +3.2063123754e+01 6.3685931837e+01 0.0000000000e+00 0.0000e+00 1.0000e+00
       11  1    3    3    0    0 -3.9296658321e+01 +8.4557054148e+00 +1.2840753476e+01 4.2197289713e+01 0.0000000000e+00 0.0000e+00 -1.0000e+00
        5  1    4    4  501    0 -6.5588886564e+00 -2.3676174000e+01 -6.7990903444e+01 7.2446070886e+01 4.7000000000e+00 0.0000e+00 -1.0000e+00
       -5  1    4    4    0  502 -5.5246656131e+00 -1.2231235548e+00 +2.0414988879e+01 2.1699763415e+01 4.7000000000e+00 0.0000e+00 1.0000e+00
        5  1    4    4  502    0 -1.5324322971e+00 +1.2345836264e+01 +1.8695190728e+01 2.2942715144e+01 4.7000000000e+00 0.0000e+00 1.0000e+00
       -5  1    4    4    0  501 -2.0928499337e+00 +2.5979063794e+00 -1.6023153393e+01 1.7028229005e+01 4.7000000000e+00 0.0000e+00 -1.0000e+00
</event>
<event>
10      1 +4.6527485e-10 2.40000000e+02 7.81860800e-03 1.03012300e-01
      -11 -1    0    0    0    0 +0.0000000000e+00 +0.0000000000e+00 +1.2000000000e+02 1.2000000000e+02 0.0000000000e+00 0.0000e+00 1.0000e+00
       11 -1    0    0    0    0 -0.0000000000e+00 -0.0000000000e+00 -1.2000000000e+02 1.2000000000e+02 0.0000000000e+00 0.0000e+00 -1.0000e+00
       23  2    1    2    0    0 +2.1635557167e+00 -3.7633178586e+01 +3.5289250099e+01 1.0475529572e+02 9.1144959840e+01 0.0000e+00 0.0000e+00
       25  2    1    2    0    0 -2.1635557167e+00 +3.7633178586e+01 -3.5289250099e+01 1.3524470428e+02 1.2499944704e+02 0.0000e+00 0.0000e+00
      -13  1    3    3    0    0 -1.9104739538e+01 -4.0232367669e+01 -1.7446293789e+01 4.7833122918e+01 0.0000000000e+00 0.0000e+00 -1.0000e+00
       13  1    3    3    0    0 +2.1268295255e+01 +2.5991890830e+00 +5.2735543888e+01 5.6922172799e+01 0.0000000000e+00 0.0000e+00 1.0000e+00
        5  1    4    4  501    0 +1.5473323775e+01 -4.2467651886e-01 -1.4547314407e+01 2.1755883233e+01 4.7000000000e+00 0.0000e+00 1.0000e+00
       -5  1    4    4    0  502 -3.7633021019e+01 +4.2284108279e+01 +2.3534258528e+01 6.1482854589e+01 4.7000000000e+00 0.0000e+00 -1.0000e+00
        5  1    4    4  502    0 -4.7701008377e-02 +1.0752919179e+00 -3.2988014953e+00 5.8421416792e+00 4.7000000000e+00 0.0000e+00 -1.0000e+00
       -5  1    4    4    0  501 +2.0043842535e+01 -5.3015450913e+00 -4.0977392725e+01 4.6163824782e+01 4.7000000000e+00 0.0000e+00 1.0000e+00
</event>
<event>
10      1 +4.6527485e-10 2.40000000e+02 7.81860800e-03 1.03012300e-01
      -11 -1    0    0    0    0 +0.0000000000e+00 +0.0000000000e+00 +1.2000000000e+02 1.2000000000e+02 0.0000000000e+00 0.0000e+00 1.0000e+00
       11 -1    0    0    0    0 -0.0000000000e+00 -0.0000000000e+00 -1.2000000000e+02 1.2000000000e+02 0.0000000000e+00 0.0000e+00 -1.0000e+00
       23  2    1    2    0    0 +2.8187623097e+01 +4.1132577093e+01 +6.8620411576e+00 1.0525588335e+02 9.2440696543e+01 0.0000e+00 0.0000e+00
       25  2    1    2    0    0 -2.8187623097e+01 -4.1132577093e+01 -6.8620411576e+00 1.3474411665e+02 1.2498983306e+02 0.0000e+00 0.0000e+00
      -13  1    3    3    0    0 +1.8212314983e+01 +6.4074676736e+01 -1.9004667942e+01 6.9270701018e+01 0.0000000000e+00 0.0000e+00 -1.0000e+00
       13  1    3    3    0    0 +9.9753081142e+00 -2.2942099644e+01 +2.5866709099e+01 3.5985182335e+01 0.0000000000e+00 0.0000e+00 1.0000e+00
        5  1    4    4  501    0 +2.5321324454e+01 -8.5560105216e+00 +2.3952173084e+01 3.6196289639e+01 4.7000000000e+00 0.0000e+00 1.0000e+00
       -5  1    4    4    0  502 +1.9575650930e+00 +5.5523260844e-01 -7.1733670633e+00 8.8140535152e+00 4.7000000000e+00 0.0000e+00 1.0000e+00
        5  1    4    4  502    0 -5.5415441612e+01 -1.6835531106e+01 -3.6349926371e+01 6.8539867405e+01 4.7000000000e+00 0.0000e+00 -1.0000e+00
       -5  1    4    4    0  501 -5.1071032283e-02 -1.6296268074e+01 +1.2709079193e+01 2.1193906089e+01 4.7000000000e+00 0.0000e+00 1.0000e+00
</event>
<event>
10      1 +4.6527485e-10 2.40000000e+02 7.81860800e-03 1.03012300e-01
      -11 -1    0    0    0    0 +0.0000000000e+00 +0.0000000000e+00 +1.2000000000e+02 1.2000000000e+02 0.0000000000e+00 0.0000e+00 -1.0000e+00
       11 -1    0    0    0    0 -0.0000000000e+00 -0.0000000000e+00 -1.2000000000e+02 1.2000000000e+02 0.0000000000e+00 0.0000e+00 1.0000e+00
       23  2    1    2    0    0 -4.7859459643e+01 +2.2350088960e+01 +3.7097237937e+00 1.0423648032e+02 8.9785452191e+01 0.0000e+00 0.0000e+00
       25  2    1    2    0    0 +4.7859459643e+01 -2.2350088960e+01 -3.7097237937e+00 1.3576351968e+02 1.2501166694e+02 0.0000e+00 0.0000e+00
      -13  1    3    3    0    0 -3.6091159388e+01 -2.6922436819e+01 -1.8810650679e+01 4.8797847997e+01 0.0000000000e+00 0.0000e+00 1.0000e+00
       13  1    3    3    0    0 -1.1768300255e+01 +4.9272525779e+01 +2.2520374472e+01 5.5438632323e+01 0.0000000000e+00 0.0000e+00 -1.0000e+00
        5  1    4    4  501    0 -3.4110733048e+00 +1.5276036610e+01 -2.2521923058e+01 2.7826601190e+01 4.7000000000e+00 0.0000e+00 -1.0000e+00
       -5  1    4    4    0  501 +9.1830623054e+00 +3.0231675110e+00 -2.7899423753e+01 2.9898762865e+01 4.7000000000e+00 0.0000e+00 -1.0000e+00
        5  1    4    4  502    0 +3.7101834350e+01 -2.6403112773e+01 +2.8515204642e+01 5.3934009419e+01 4.7000000000e+00 0.0000e+00 -1.0000e+00
       -5  1    4    4    0  502 +4.9856362924e+00 -1.4246180307e+01 +1.8196418375e+01 2.4104146205e+01 4.7000000000e+00 0.0000e+00 -1.0000e+00
</event>
<event>
10      1 +4.6527485e-10 2.40000000e+02 7.81860800e-03 1.03012300e-01
      -11 -1    0    0    0    0 +0.0000000000e+00 +0.0000000000e+00 +1.2000000000e+02 1.2000000000e+02 0.0000000000e+00 0.0000e+00 1.0000e+00
       11 -1    0    0    0    0 -0.0000000000e+00 -0.0000000000e+00 -1.2000000000e+02 1.2000000000e+02 0.0000000000e+00 0.0000e+00 -1.0000e+00
       23  2    1    2    0    0 +2.3065424127e-01 -3.4723010820e+01 -3.3026123849e+01 1.0612949488e+02 9.4694266702e+01 0.0000e+00 0.0000e+00
       25  2    1    2    0    0 -2.3065424127e-01 +3.4723010820e+01 +3.3026123849e+01 1.3387050512e+02 1.2499938640e+02 0.0000e+00 0.0000e+00
      -13  1    3    3    0    0 -5.0038115909e+00 -9.1715913650e+00 -6.4450142598e+01 6.5291478000e+01 0.0000000000e+00 0.0000e+00 -1.0000e+00
       13  1    3    3    0    0 +5.2344658322e+00 -2.5551419455e+01 +3.1424018749e+01 4.0838016884e+01 0.0000000000e+00 0.0000e+00 1.0000e+00
        5  1    4    4  501    0 +4.9444796185e+00 +1.1790654969e+00 -5.1395350594e+00 8.6222325862e+00 4.7000000000e+00 0.0000e+00 -1.0000e+00
       -5  1    4    4    0  502 -1.1289237615e+00 +1.5535961763e+01 +1.7739018728e+01 2.4070798952e+01 4.7000000000e+00 0.0000e+00 1.0000e+00
        5  1    4    4  502    0 -2.0282880489e+01 +3.8277494147e+01 +4.6745637396e+01 6.3904666611e+01 4.7000000000e+00 0.0000e+00 1.0000e+00
       -5  1    4    4    0  501 +1.6236670390e+01 -2.0269510586e+01 -2.6318997215e+01 3.7272806967e+01 4.7000000000e+00 0.0000e+00 1.0000e+00
</event>
<event>
10      1 +4.6527485e-10 2.40000000e+02 7.81860800e-03 1.03012300e-01
      -11 -1    0    0    0    0 +0.0000000000e+00 +0.0000000000e+00 +1.2000000000e+02 1.2000000000e+02 0.0000000000e+00 0.0000e+00 1.0000e+00
       11 -1    0    0    0    0 -0.0000000000e+00 -0.0000000000e+00 -1.2000000000e+02 1.2000000000e+02 0.0000000000e+00 0.0000e+00 -1.0000e+00
       23  2    1    2    0    0 +1.7533741580e+01 -2.8352253940e+00 -4.6859973274e+01 1.0532831211e+02 9.2643001027e+01 0.0000e+00 0.0000e+00
       25  2    1    2    0    0 -1.7533741580e+01 +2.8352253940e+00 +4.6859973274e+01 1.3467168789e+02 1.2500054331e+02 0.0000e+00 0.0000e+00
      -11  1    3    3    0    0 -1.1092036009e+01 +3.7435417409e+00 -6.8088731046e+01 6.9087789536e+01 0.0000000000e+00 0.0000e+00 -1.0000e+00
       11  1    3    3    0    0 +2.8625777590e+01 -6.5787671350e+00 +2.1228757772e+01 3.6240522570e+01 0.0000000000e+00 0.0000e+00 1.0000e+00
        5  1    4    4  501    0 -1.5288973706e+01 +5.5328594846e+00 +1.4513132507e+01 2.2295431510e+01 4.7000000000e+00 0.0000e+00 1.0000e+00
       -5  1    4    4    0  502 +1.1440448807e+01 -4.1672586274e+01 +3.5064736191e+00 4.3610476642e+01 4.7000000000e+00 0.0000e+00 1.0000e+00
        5  1    4    4  502    0 +1.1501725062e+00 +1.0128181698e+00 -1.0699237925e+01 1.1786110029e+01 4.7000000000e+00 0.0000e+00 1.0000e+00
       -5  1    4    4    0  501 -1.4835389187e+01 +3.7962134014e+01 +3.9539605073e+01 5.6979669712e+01 4.7000000000e+00 0.0000e+00 1.0000e+00
</event>
<event>
10      1 +4.6527485e-10 2.40000000e+02 7.81860800e-03 1.03012300e-01
      -11 -1    0    0    0    0 +0.0000000000e+00 +0.0000000000e+00 +1.2000000000e+02 1.2000000000e+02 0.0000000000e+00 0.0000e+00 -1.0000e+00
       11 -1    0    0    0    0 -0.0000000000e+00 -0.0000000000e+00 -1.2000000000e+02 1.2000000000e+02 0.0000000000e+00 0.0000e+00 1.0000e+00
       23  2    1    2    0    0 -1.4523709155e+01 -4.7898937484e+01 +1.1708961080e+01 1.0484297096e+02 9.1376706277e+01 0.0000e+00 0.0000e+00
       25  2    1    2    0    0 +1.4523709155e+01 +4.7898937484e+01 -1.1708961080e+01 1.3515702904e+02 1.2500030556e+02 0.0000e+00 0.0000e+00
      -13  1    3    3    0    0 -3.0930483991e+01 -6.4321026966e+01 +2.7803471104e+01 7.6595837715e+01 0.0000000000e+00 0.0000e+00 -1.0000e+00
       13  1    3    3    0    0 +1.6406774837e+01 +1.6422089482e+01 -1.6094510024e+01 2.8247133243e+01 0.0000000000e+00 0.0000e+00 1.0000e+00
        5  1    4    4  501    0 -3.3227877092e+01 -5.0775510131e+00 +1.6420270543e+00 3.3980282418e+01 4.7000000000e+00 0.0000e+00 -1.0000e+00
       -5  1    4    4    0  502 +3.6776375030e+01 +4.7609313371e+01 -1.6110119147e+01 6.2456179989e+01 4.7000000000e+00 0.0000e+00 1.0000e+00
        5  1    4    4  502    0 +2.1568280998e+01 +9.9486242825e+00 -4.0046415480e+00 2.4541658955e+01 4.7000000000e+00 0.0000e+00 1.0000e+00
       -5  1    4    4    0  501 -1.0593069780e+01 -4.5814491564e+00 +6.7637725606e+00 1.4178907680e+01 4.7000000000e+00 0.0000e+00 -1.0000e+00
</event>
<event>
10      1 +4.6527485e-10 2.40000000e+02 7.81860800e-03 1.03012300e-01
      -11 -1    0    0    0    0 +0.0000000000e+00 +0.0000000000e+00 +1.2000000000e+02 1.2000000000e+02 0.0000000000e+00 0.0000e+00 1.0000e+00
       11 -1    0    0    0    0 -0.0000000000e+00 -0.0000000000e+00 -1.2000000000e+02 1.2000000000e+02 0.0000000000e+00 0.0000e+00 -1.0000e+00
       23  2    1    2    0    0 +4.2068730314e+00 -5.2249727594e+01 -1.0211092085e+01 1.0406971838e+02 8.9322494743e+01 0.0000e+00 0.0000e+00
       25  2    1    2    0    0 -4.2068730314e+00 +5.2249727594e+01 +1.0211092085e+01 1.3593028162e+02 1.2500017299e+02 0.0000e+00 0.0000e+00
      -11  1    3    3    0    0 +5.5738088260e+00 -6.6263626553e+00 +3.7237550749e+01 3.8231024217e+01 0.0000000000e+00 0.0000e+00 1.0000e+00
       11  1    3    3    0    0 -1.3669357946e+00 -4.5623364939e+01 -4.7448642834e+01 6.5838694159e+01 0.0000000000e+00 0.0000e+00 -1.0000e+00
        5  1    4    4  501    0 +2.9135422658e+00 +1.4177671045e+01 +4.8605407278e+00 1.5975291577e+01 4.7000000000e+00 0.0000e+00 -1.0000e+00
       -5  1    4    4    0  501 +7.6575903400e+00 +1.7386643447e+01 +7.2384614363e+00 2.0866705157e+01 4.7000000000e+00 0.0000e+00 -1.0000e+00
        5  1    4    4  502    0 -2.0017130330e-01 +4.1393905582e+01 +3.4785331576e+01 5.4273426101e+01 4.7000000000e+00 0.0000e+00 -1.0000e+00
       -5  1    4    4    0  502 -1.4577834334e+01 -2.0708492480e+01 -3.6673241656e+01 4.4814858788e+01 4.7000000000e+00 0.0000e+00 -1.0000e+00
</event>
<event>
10      1 +4.6527485e-10 2.40000000e+02 7.81860800e-03 1.03012300e-01
      -11 -1    0    0    0    0 +0.0000000000e+00 +0.0000000000e+00 +1.2000000000e+02 1.2000000000e+02 0.0000000000e+00 0.0000e+00 1.0000e+00
       11 -1    0    0    0    0 -0.0000000000e+00 -0.0000000000e+00 -1.2000000000e+02 1.2000000000e+02 0.0000000000e+00 0.0000e+00 -1.0000e+00
       23  2    1    2    0    0 +1.6901595602e+01 +1.6232885848e+01 -4.6009172078e+01 1.0475745492e+02 9.1148833945e+01 0.0000e+00 0.0000e+00
       25  2    1    2    0    0 -1.6901595602e+01 -1.6232885848e+01 +4.6009172078e+01 1.3524254508e+02 1.2499812625e+02 0.0000e+00 0.0000e+00
      -13  1    3    3    0    0 +1.0056721485e+01 -1.7848182421e+01 +2.0956813731e+01 2.9306710913e+01 0.0000000000e+00 0.0000e+00 1.0000e+00
       13  1    3    3    0    0 +6.8448741178e+00 +3.4081068269e+01 -6.6965985809e+01 7.5450744009e+01 0.0000000000e+00 0.0000e+00 -1.0000e+00
        5  1    4    4  501    0 +3.2712157734e+00 +1.1479956447e+01 +1.1091072187e+01 1.6958541651e+01 4.7000000000e+00 0.0000e+00 -1.0000e+00
       -5  1    4    4    0  502 -9.8185540939e+00 -1.6827472025e+01 +2.3060002386e+01 3.0551948044e+01 4.7000000000e+00 0.0000e+00 1.0000e+00
        5  1    4    4  502    0 -2.8830585578e+01 -4.1566843903e+01 +6.8294185935e+00 5.1261448820e+01 4.7000000000e+00 0.0000e+00 -1.0000e+00
       -5  1    4    4    0  501 +1.8476328296e+01 +3.0681473632e+01 +5.0286789116e+00 3.6470606564e+01 4.7000000000e+00 0.0000e+00 -1.0000e+00
</event>
<event>
10      1 +4.6527485e-10 2.40000000e+02 7.81860800e-03 1.03012300e-01
      -11 -1    0    0    0    0 +0.0000000000e+00 +0.0000000000e+00 +1.2000000000e+02 1.2000000000e+02 0.0000000000e+00 0.0000e+00 1.0000e+00
       11 -1    0    0    0    0 -0.0000000000e+00 -0.0000000000e+00 -1.2000000000e+02 1.2000000000e+02 0.0000000000e+00 0.0000e+00 -1.0000e+00
       23  2    1    2    0    0 -1.7648987553e+01 +2.1775401802e+01 -4.3196893938e+01 1.0481090063e+02 9.1289092223e+01 0.0000e+00 0.0000e+00
       25  2    1    2    0    0 +1.7648987553e+01 -2.1775401802e+01 +4.3196893938e+01 1.3518909937e+02 1.2499786421e+02 0.0000e+00 0.0000e+00
      -13  1    3    3    0    0 -5.1455171255e+01 +2.4925844702e+01 -1.1412423979e+01 5.8302451098e+01 0.0000000000e+00 0.0000e+00 1.0000e+00
       13  1    3    3    0    0 +3.3806183702e+01 -3.1504429005e+00 -3.1784469960e+01 4.6508449529e+01 0.0000000000e+00 0.0000e+00 -1.0000e+00
        5  1    4    4  501    0 -2.5763475962e+00 -3.2164262359e+00 -6.7810376317e+00 9.2225504081e+00 4.7000000000e+00 0.0000e+00 -1.0000e+00
       -5  1    4    4    0  502 +7.6653326419e+00 -6.0667679613e-01 +1.3549811235e+01 1.6273068725e+01 4.7000000000e+00 0.0000e+00 -1.0000e+00
        5  1    4    4  502    0 +9.9058716475e+00 +1.2685598158e+01 +6.5198215263e+01 6.7319744260e+01 4.7000000000e+00 0.0000e+00 1.0000e+00
       -5  1    4    4    0  501 +2.6541308597e+00 -3.0637896928e+01 -2.8770094927e+01 4.2373735980e+01 4.7000000000e+00 0.0000e+00 -1.0000e+00
</event>
<event>
10      1 +4.6527485e-10 2.40000000e+02 7.81860800e-03 1.03012300e-01
      -11 -1    0    0    0    0 +0.0000000000e+00 +0.0000000000e+00 +1.2000000000e+02 1.2000000000e+02 0.0000000000e+00 0.0000e+00 -1.0000e+00
       11 -1    0    0    0    0 -0.0000000000e+00 -0.0000000000e+00 -1.2000000000e+02 1.2000000000e+02 0.0000000000e+00 0.0000e+00 1.0000e+00
       23  2    1    2    0    0 -3.5147116394e+01 -1.5456184846e+01 +3.3640954256e+01 1.0497864758e+02 9.1731070005e+01 0.0000e+00 0.0000e+00
       25  2    1    2    0    0 +3.5147116394e+01 +1.5456184846e+01 -3.3640954256e+01 1.3502135242e+02 1.2499935346e+02 0.0000e+00 0.0000e+00
      -11  1    3    3    0    0 -3.8142263020e+01 +8.3502107893e+00 -2.1692575133e+01 4.4666834054e+01 0.0000000000e+00 0.0000e+00 1.0000e+00
       11  1    3    3    0    0 +2.9951466262e+00 -2.3806395635e+01 +5.5333529389e+01 6.0311813528e+01 0.0000000000e+00 0.0000e+00 -1.0000e+00
        5  1    4    4  501    0 -5.3783811893e+00 +6.1466255396e+00 +1.0779138413e+00 9.4847186564e+00 4.7000000000e+00 0.0000e+00 -1.0000e+00
       -5  1    4    4    0  502 +8.7250423486e+00 +3.0233607793e+00 +1.8810411571e-01 1.0363033221e+01 4.7000000000e+00 0.0000e+00 -1.0000e+00
        5  1    4    4  502    0 +7.0034666268e+01 +2.7243573474e+00 -1.5684380718e+01 7.1974762249e+01 4.7000000000e+00 0.0000e+00 1.0000e+00
       -5  1    4    4    0  501 -3.8234211033e+01 +3.5618411796e+00 -1.9222591494e+01 4.3198838291e+01 4.7000000000e+00 0.0000e+00 1.0000e+00
</event>
<event>
10      1 +4.6527485e-10 2.40000000e+02 7.81860800e-03 1.03012300e-01
      -11 -1    0    0    0    0 +0.0000000000e+00 +0.0000000000e+00 +1.2000000000e+02 1.2000000000e+02 0.0000000000e+00 0.0000e+00 1.0000e+00
       11 -1    0    0    0    0 -0.0000000000e+00 -0.0000000000e+00 -1.2000000000e+02 1.2000000000e+02 0.0000000000e+00 0.0000e+00 -1.0000e+00
       23  2    1    2    0    0 +3.6373685744e+01 -5.6883937491e+00 +3.6877754506e+01 1.0457267269e+02 9.0664614147e+01 0.0000e+00 0.0000e+00
       25  2    1    2    0    0 -3.6373685744e+01 +5.6883937491e+00 -3.6877754506e+01 1.3542732731e+02 1.2500075746e+02 0.0000e+00 0.0000e+00
      -11  1    3    3    0    0 +8.9012611167e+00 +2.6766295696e+01 +5.2233901755e+01 5.9363688626e+01 0.0000000000e+00 0.0000e+00 1.0000e+00
       11  1    3    3    0    0 +2.7472424627e+01 -3.2454689445e+01 -1.5356147249e+01 4.5208984065e+01 0.0000000000e+00 0.0000e+00 -1.0000e+00
        5  1    4    4  501    0 -5.3002332410e+01 -6.8652685247e+00 -1.2506208767e+01 5.5089694232e+01 4.7000000000e+00 0.0000e+00 -1.0000e+00
       -5  1    4    4    0  501 -2.1250060409e+01 -2.3630254080e+00 -2.5788903931e+01 3.3827600010e+01 4.7000000000e+00 0.0000e+00 -1.0000e+00
        5  1    4    4  502    0 +2.2198444922e+00 +8.4327716144e+00 -4.4042985320e-01 9.9158118743e+00 4.7000000000e+00 0.0000e+00 1.0000e+00
       -5  1    4    4    0  502 +3.5658862583e+01 +6.4839160673e+00 +1.8577880452e+00 3.6594221193e+01 4.7000000000e+00 0.0000e+00 1.0000e+00
</event>
<event>
10      1 +4.6527485e-10 2.40000000e+02 7.81860800e-03 1.03012300e-01
      -11 -1    0    0    0    0 +0.0000000000e+00 +0.0000000000e+00 +1.2000000000e+02 1.2000000000e+02 0.0000000000e+00 0.0000e+00 1.0000e+00
       11 -1    0    0    0    0 -0.0000000000e+00 -0.0000000000e+00 -1.2000000000e+02 1.2000000000e+02 0.0000000000e+00 0.0000e+00 -1.0000e+00
       23  2    1    2    0    0 +8.7543741268e+00 +1.6059150271e+01 +4.8836138219e+01 1.0455817845e+02 9.0625100890e+01 0.0000e+00 0.0000e+00
       25  2    1    2    0    0 -8.7543741268e+00 -1.6059150271e+01 -4.8836138219e+01 1.3544182155e+02 1.2499993302e+02 0.0000e+00 0.0000e+00
      -11  1    3    3    0    0 +2.7020429775e+01 +4.0806774246e+00 +6.9382546190e+01 7.4570056117e+01 0.0000000000e+00 0.0000e+00 1.0000e+00
       11  1    3    3    0    0 -1.8266055648e+01 +1.1978472846e+01 -2.0546407971e+01 2.9988122335e+01 0.0000000000e+00 0.0000e+00 -1.0000e+00
        5  1    4    4  501    0 -3.8894049736e+01 +3.5749514222e+01 -1.4287993168e+01 5.4927330363e+01 4.7000000000e+00 0.0000e+00 1.0000e+00
       -5  1    4    4    0  501 -4.0951785759e+00 -1.8672267393e+01 -1.0827862775e+01 2.2466790368e+01 4.7000000000e+00 0.0000e+00 1.0000e+00
        5  1    4    4  502    0 +2.3236369016e+01 -8.6164441255e+00 -1.5275389412e+01 2.9488972110e+01 4.7000000000e+00 0.0000e+00 -1.0000e+00
       -5  1    4    4    0  502 +1.0998485169e+01 -2.4519952974e+01 -8.4448928641e+00 2.8558728707e+01 4.7000000000e+00 0.0000e+00 -1.0000e+00
</event>
<event>
10      1 +4.6527485e-10 2.40000000e+02 7.81860800e-03 1.03012300e-01
      -11 -1    0    0    0    0 +0.0000000000e+00 +0.0000000000e+00 +1.2000000000e+02 1.2000000000e+02 0.0000000000e+00 0.0000e+00 1.0000e+00
       11 -1    0    0    0    0 -0.0000000000e+00 -0.0000000000e+00 -1.2000000000e+02 1.2000000000e+02 0.0000000000e+00 0.0000e+00 -1.0000e+00
       23  2    1    2    0    0 -6.0271974969e+00 -5.0369513155e+01 +1.0617496580e+01 1.0468513928e+02 9.0955110833e+01 0.0000e+00 0.0000e+00
       25  2    1    2    0    0 +6.0271974969e+00 +5.0369513155e+01 -1.0617496580e+01 1.3531486072e+02 1.2499586127e+02 0.0000e+00 0.0000e+00
      -13  1    3    3    0    0 +7.8714088752e+00 +3.7852173079e+00 +4.0402965409e+01 4.1336262066e+01 0.0000000000e+00 0.0000e+00 1.0000e+00
       13  1    3    3    0    0 -1.3898606372e+01 -5.4154730463e+01 -2.9785468828e+01 6.3348877211e+01 0.0000000000e+00 0.0000e+00 -1.0000e+00
        5  1    4    4  501    0 -3.7340419094e+01 -1.9920482323e+01 -9.2255401289e+00 4.3569864641e+01 4.7000000000e+00 0.0000e+00 1.0000e+00
       -5  1    4    4    0  502 +5.4607522932e+00 +1.3997755632e+01 +8.5623579715e+00 1.7920964047e+01 4.7000000000e+00 0.0000e+00 -1.0000e+00
        5  1    4    4  502    0 +3.9274695319e+01 +5.4014305427e+01 -1.2064716687e+01 6.8027158341e+01 4.7000000000e+00 0.0000e+00 -1.0000e+00
       -5  1    4    4    0  501 -1.3678310213e+00 +2.2779344185e+00 +2.1104022637e+00 5.7968736947e+00 4.7000000000e+00 0.0000e+00 1.0000e+00
</event>
<event>
10      1 +4.6527485e-10 2.40000000e+02 7.81860800e-03 1.03012300e-01
      -11 -1    0    0    0    0 +0.0000000000e+00 +0.0000000000e+00 +1.2000000000e+02 1.2000000000e+02 0.0000000000e+00 0.0000e+00 1.0000e+00
       11 -1    0    0    0    0 -0.0000000000e+00 -0.0000000000e+00 -1.2000000000e+02 1.2000000000e+02 0.0000000000e+00 0.0000e+00 -1.0000e+00
       23  2    1    2    0    0 +1.3123145562e+01 +3.3745941108e+01 +3.6931592392e+01 1.0472350786e+02 9.1060776908e+01 0.0000e+00 0.0000e+00
       25  2    1    2    0    0 -1.3123145562e+01 -3.3745941108e+01 -3.6931592392e+01 1.3527649214e+02 1.2499912527e+02 0.0000e+00 0.0000e+00
      -13  1    3    3    0    0 -2.0069281868e+01 -2.3375799156e+01 +4.5304824968e+00 3.1140477398e+01 0.0000000000e+00 0.0000e+00 -1.0000e+00
       13  1    3    3    0    0 +3.3192427430e+01 +5.7121740264e+01 +3.2401109895e+01 7.3583030462e+01 0.0000000000e+00 0.0000e+00 1.0000e+00
        5  1    4    4  501    0 +4.6243257793e+00 -3.1300166160e+01 -2.4578774235e+01 4.0339694266e+01 4.7000000000e+00 0.0000e+00 1.0000e+00
       -5  1    4    4    0  502 +2.8882524210e+00 +1.6815765138e+01 -5.4345837428e+00 1.8513148292e+01 4.7000000000e+00 0.0000e+00 1.0000e+00
        5  1    4    4  502    0 -2.8252403233e+01 +5.3174833450e-01 +2.4861074042e+01 3.7929461468e+01 4.7000000000e+00 0.0000e+00 1.0000e+00
       -5  1    4    4    0  501 +7.6166794705e+00 -1.9793288420e+01 -3.1779308457e+01 3.8494188115e+01 4.7000000000e+00 0.0000e+00 1.0000e+00
</event>
<event>
10      1 +4.6527485e-10 2.40000000e+02 7.81860800e-03 1.03012300e-01
      -11 -1    0    0    0    0 +0.0000000000e+00 +0.0000000000e+00 +1.2000000000e+02 1.2000000000e+02 0.0000000000e+00 0.0000e+00 -1.0000e+00
       11 -1    0    0    0    0 -0.0000000000e+00 -0.0000000000e+00 -1.2000000000e+02 1.2000000000e+02 0.0000000000e+00 0.0000e+00 1.0000e+00
       23  2    1    2    0    0 +9.1771008607e+00 -1.4829313713e+01 +4.8533576662e+01 1.0478091464e+02 9.1210768460e+01 0.0000e+00 0.0000e+00
       25  2    1    2    0    0 -9.1771008607e+00 +1.4829313713e+01 -4.8533576662e+01 1.3521908536e+02 1.2499826102e+02 0.0000e+00 0.0000e+00
      -13  1    3    3    0    0 -3.9343805760e+01 +4.0496223546e+00 +2.9519753757e+01 4.9353321618e+01 0.0000000000e+00 0.0000e+00 -1.0000e+00
       13  1    3    3    0    0 +4.8520906620e+01 -1.8878936067e+01 +1.9013822905e+01 5.5427593018e+01 0.0000000000e+00 0.0000e+00 1.0000e+00
        5  1    4    4  501    0 -4.2006154391e+01 -3.4919105131e+01 -1.0230673121e+01 5.5772910830e+01 4.7000000000e+00 0.0000e+00 1.0000e+00
       -5  1    4    4    0  501 -8.9861007340e-01 -1.2282671584e+00 -1.1872727041e+00 5.0809208565e+00 4.7000000000e+00 0.0000e+00 -1.0000e+00
        5  1    4    4  502    0 +2.2899376066e+00 +8.1728784919e+00 -1.1995444895e+01 1.5427911566e+01 4.7000000000e+00 0.0000e+00 -1.0000e+00
       -5  1    4    4    0  502 +3.1437725997e+01 +4.2803807511e+01 -2.5120185943e+01 5.8937342111e+01 4.7000000000e+00 0.0000e+00 -1.0000e+00
</event>
<event>
10      1 +4.6527485e-10 2.40000000e+02 7.81860800e-03 1.03012300e-01
      -11 -1    0    0    0    0 +0.0000000000e+00 +0.0000000000e+00 +1.2000000000e+02 1.2000000000e+02 0.0000000000e+00 0.0000e+00 1.0000e+00
       11 -1    0    0    0    0 -0.0000000000e+00 -0.0000000000e+00 -1.2000000000e+02 1.2000000000e+02 0.0000000000e+00 0.0000e+00 -1.0000e+00
       23  2    1    2    0    0 -9.2775996637e+00 +4.9653472757e+01 -1.1951091726e+01 1.0465051811e+02 9.0870023304e+01 0.0000e+00 0.0000e+00
       25  2    1    2    0    0 +9.2775996637e+00 -4.9653472757e+01 +1.1951091726e+01 1.3534948189e+02 1.2500044977e+02 0.0000e+00 0.0000e+00
      -11  1    3    3    0    0 +2.7606841299e+01 +3.5991052757e+01 +2.4039376748e+01 5.1336002956e+01 0.0000000000e+00 0.0000e+00 1.0000e+00
       11  1    3    3    0    0 -3.6884440962e+01 +1.3662420000e+01 -3.5990468474e+01 5.3314515156e+01 0.0000000000e+00 0.0000e+00 -1.0000e+00
        5  1    4    4  501    0 +4.0077264900e+01 +4.0768146791e+00 +2.4605363100e+01 4.7437553405e+01 4.7000000000e+00 0.0000e+00 -1.0000e+00
       -5  1    4    4    0  501 +4.2940747324e+00 +5.8689039131e+00 +8.6558872996e+00 1.2243263286e+01 4.7000000000e+00 0.0000e+00 -1.0000e+00
        5  1    4    4  502    0 -2.7853164717e+01 -3.1013560274e+01 -6.8998179429e+00 4.2512788585e+01 4.7000000000e+00 0.0000e+00 -1.0000e+00
       -5  1    4    4    0  502 -7.2405752517e+00 -2.8585631076e+01 -1.4410340730e+01 3.3155876612e+01 4.7000000000e+00 0.0000e+00 -1.0000e+00
</event>
<event>
10      1 +4.6527485e-10 2.40000000e+02 7.81860800e-03 1.03012300e-01
      -11 -1    0    0    0    0 +0.0000000000e+00 +0.0000000000e+00 +1.2000000000e+02 1.2000000000e+02 0.0000000000e+00 0.0000e+00 1.0000e+00
       11 -1    0    0    0    0 -0.0000000000e+00 -0.0000000000e+00 -1.2000000000e+02 1.2000000000e+02 0.0000000000e+00 0.0000e+00 -1.0000e+00
       23  2    1    2    0    0 +7.2229574807e-01 -2.6332525912e+01 -1.6911676910e+01 1.1114122881e+02 1.0664166303e+02 0.0000e+00 0.0000e+00
       25  2    1    2    0    0 -7.2229574807e-01 +2.6332525912e+01 +1.6911676910e+01 1.2885877119e+02 1.2499861785e+02 0.0000e+00 0.0000e+00
      -13  1    3    3    0    0 -3.1828247946e+01 -5.0229801969e+01 -3.2606146461e+01 6.7817631632e+01 0.0000000000e+00 0.0000e+00 1.0000e+00
       13  1    3    3    0    0 +3.2550543694e+01 +2.3897276057e+01 +1.5694469551e+01 4.3323597175e+01 0.0000000000e+00 0.0000e+00 -1.0000e+00
        5  1    4    4  501    0 +1.4838216357e+01 -8.3891644199e+00 -4.3606862825e+00 1.8211434023e+01 4.7000000000e+00 0.0000e+00 -1.0000e+00
       -5  1    4    4    0  502 -2.9688675851e+01 +3.6016375996e+01 +4.2048005527e+01 6.2997790298e+01 4.7000000000e+00 0.0000e+00 -1.0000e+00
        5  1    4    4  502    0 +4.2437640267e-01 +9.7762562898e+00 +8.0684925538e+00 1.3525747834e+01 4.7000000000e+00 0.0000e+00 -1.0000e+00
       -5  1    4    4    0  501 +1.3703787344e+01 -1.1070941954e+01 -2.8844134888e+01 3.4123799038e+01 4.7000000000e+00 0.0000e+00 -1.0000e+00
</event>
<event>
10      1 +4.6527485e-10 2.40000000e+02 7.81860800e-03 1.03012300e-01
      -11 -1    0    0    0    0 +0.0000000000e+00 +0.0000000000e+00 +1.2000000000e+02 1.2000000000e+02 0.0000000000e+00 0.0000e+00 -1.0000e+00
       11 -1    0    0    0    0 -0.0000000000e+00 -0.0000000000e+00 -1.2000000000e+02 1.2000000000e+02 0.0000000000e+00 0.0000e+00 1.0000e+00
       23  2    1    2    0    0 +3.5605568461e+01 -2.5991016534e+01 -1.7470171490e+01 1.0630468981e+02 9.5143001523e+01 0.0000e+00 0.0000e+00
       25  2    1    2    0    0 -3.5605568461e+01 +2.5991016534e+01 +1.7470171490e+01 1.3369531019e+02 1.2500375845e+02 0.0000e+00 0.0000e+00
      -11  1    3    3    0    0 +3.8962840373e+01 +2.2930235061e+01 +1.4837544121e+01 4.7582048353e+01 0.0000000000e+00 0.0000e+00 -1.0000e+00
       11  1    3    3    0    0 -3.3572719119e+00 -4.8921251595e+01 -3.2307715611e+01 5.8722641462e+01 0.0000000000e+00 0.0000e+00 1.0000e+00
        5  1    4    4  501    0 -3.1708936347e+00 -3.0645551349e+01 -2.7510217135e+01 4.1570499525e+01 4.7000000000e+00 0.0000e+00 1.0000e+00
       -5  1    4    4    0  502 -1.1513436710e+01 +4.3470547555e+01 +4.3965028148e+01 6.3065532818e+01 4.7000000000e+00 0.0000e+00 1.0000e+00
        5  1    4    4  502    0 -1.4100992936e+01 +1.3917483773e+01 +2.7975235232e+00 2.0553600517e+01 4.7000000000e+00 0.0000e+00 1.0000e+00
       -5  1    4    4    0  501 -6.8202451801e+00 -7.5146344483e-01 -1.7821630460e+00 8.5056773245e+00 4.7000000000e+00 0.0000e+00 1.0000e+00
</event>
<event>
10      1 +4.6527485e-10 2.40000000e+02 7.81860800e-03 1.03012300e-01
      -11 -1    0    0    0    0 +0.0000000000e+00 +0.0000000000e+00 +1.2000000000e+02 1.2000000000e+02 0.0000000000e+00 0.0000e+00 -1.0000e+00
       11 -1    0    0    0    0 -0.0000000000e+00 -0.0000000000e+00 -1.2000000000e+02 1.2000000000e+02 0.0000000000e+00 0.0000e+00 1.0000e+00
       23  2    1    2    0    0 -3.2083500607e+01 +6.7644315431e+00 +3.9441527719e+01 1.0488567392e+02 9.1489135633e+01 0.0000e+00 0.0000e+00
       25  2    1    2    0    0 +3.2083500607e+01 -6.7644315431e+00 -3.9441527719e+01 1.3511432608e+02 1.2500055383e+02 0.0000e+00 0.0000e+00
      -13  1    3    3    0    0 -2.7453149017e+01 +2.1717105378e+00 +6.9169853512e+01 7.4450388531e+01 0.0000000000e+00 0.0000e+00 -1.0000e+00
       13  1    3    3    0    0 -4.6303515907e+00 +4.5927210053e+00 -2.9728325792e+01 3.0435285386e+01 0.0000000000e+00 0.0000e+00 1.0000e+00
        5  1    4    4  501    0 +2.4867749377e+01 -2.4023789182e+01 -7.6137898196e+00 3.5715643648e+01 4.7000000000e+00 0.0000e+00 1.0000e+00
       -5  1    4    4    0  501 +1.5483480944e+01 +1.5252294069e+01 +2.5843275549e+01 3.4093042510e+01 4.7000000000e+00 0.0000e+00 1.0000e+00
        5  1    4    4  502    0 +9.9951619333e+00 +2.3318505387e+00 -2.7470291078e+01 2.9699287549e+01 4.7000000000e+00 0.0000e+00 -1.0000e+00
       -5  1    4    4    0  502 -1.8262891647e+01 -3.2478696811e-01 -3.0200722371e+01 3.5606352377e+01 4.7000000000e+00 0.0000e+00 -1.0000e+00
</event>
<event>
10      1 +4.6527485e-10 2.40000000e+02 7.81860800e-03 1.03012300e-01
      -11 -1    0    0    0    0 +0.0000000000e+00 +0.0000000000e+00 +1.2000000000e+02 1.2000000000e+02 0.0000000000e+00 0.0000e+00 1.0000e+00
       11 -1    0    0    0    0 -0.0000000000e+00 -0.0000000000e+00 -1.2000000000e+02 1.2000000000e+02 0.0000000000e+00 0.0000e+00 -1.0000e+00
       23  2    1    2    0    0 -4.0685594587e+01 -4.3877619276e+00 -3.0724326792e+01 1.0493222695e+02 9.1609049410e+01 0.0000e+00 0.0000e+00
       25  2    1    2    0    0 +4.0685594587e+01 +4.3877619276e+00 +3.0724326792e+01 1.3506777305e+02 1.2499899599e+02 0.0000e+00 0.0000e+00
      -11  1    3    3    0    0 -1.1518513658e+01 +2.7837414954e+01 +2.1481837008e+01 3.7000907414e+01 0.0000000000e+00 0.0000e+00 1.0000e+00
       11  1    3    3    0    0 -2.9167080930e+01 -3.2225176882e+01 -5.2206163800e+01 6.7931319535e+01 0.0000000000e+00 0.0000e+00 -1.0000e+00
        5  1    4    4  501    0 -6.3337110696e-01 -1.9168858824e+01 +7.9901211684e+00 2.1302073699e+01 4.7000000000e+00 0.0000e+00 1.0000e+00
       -5  1    4    4    0  501 -9.4946280493e+00 -2.7320715501e+01 -9.8032303358e+00 3.0899235950e+01 4.7000000000e+00 0.0000e+00 1.0000e+00
        5  1    4    4  502    0 +2.5012850643e+01 +9.8886663582e+00 +1.4922161139e+01 3.1115740594e+01 4.7000000000e+00 0.0000e+00 1.0000e+00
       -5  1    4    4    0  502 +2.5800743100e+01 +4.0988669895e+01 +1.7615274820e+01 5.1750722809e+01 4.7000000000e+00 0.0000e+00 1.0000e+00
</event>
<event>
10      1 +4.6527485e-10 2.40000000e+02 7.81860800e-03 1.03012300e-01
      -11 -1    0    0    0    0 +0.0000000000e+00 +0.0000000000e+00 +1.2000000000e+02 1.2000000000e+02 0.0000000000e+00 0.0000e+00 1.0000e+00
       11 -1    0    0    0    0 -0.0000000000e+00 -0.0000000000e+00 -1.2000000000e+02 1.2000000000e+02 0.0000000000e+00 0.0000e+00 -1.0000e+00
       23  2    1    2    0    0 +3.4906223520e+01 +2.9920039398e+01 -2.1826039686e+01 1.0503768046e+02 9.1885173503e+01 0.0000e+00 0.0000e+00
       25  2    1    2    0    0 -3.4906223520e+01 -2.9920039398e+01 +2.1826039686e+01 1.3496231954e+02 1.2499919396e+02 0.0000e+00 0.0000e+00
      -13  1    3    3    0    0 +3.2809346295e+01 -4.3549297956e+00 +2.8794084440e+01 4.3869327743e+01 0.0000000000e+00 0.0000e+00 1.0000e+00
       13  1    3    3    0    0 +2.0968772244e+00 +3.4274969193e+01 -5.0620124126e+01 6.1168352715e+01 0.0000000000e+00 0.0000e+00 -1.0000e+00
        5  1    4    4  501    0 +2.0749254659e+01 -1.6632590814e+01 -5.2393823859e+00 2.7508467312e+01 4.7000000000e+00 0.0000e+00 -1.0000e+00
       -5  1    4    4    0  501 +3.1686124119e+00 -2.9984276647e+01 +2.5298930567e+01 3.9638653339e+01 4.7000000000e+00 0.0000e+00 -1.0000e+00
        5  1    4    4  502    0 -5.7442029939e+01 +1.1929056722e+01 -3.8305780646e+00 5.8980102799e+01 4.7000000000e+00 0.0000e+00 1.0000e+00
       -5  1    4    4    0  502 -1.3820606511e+00 +4.7677713413e+00 +5.5970695686e+00 8.8350960924e+00 4.7000000000e+00 0.0000e+00 1.0000e+00
</event>
<event>
10      1 +4.6527485e-10 2.40000000e+02 7.81860800e-03 1.03012300e-01
      -11 -1    0    0    0    0 +0.0000000000e+00 +0.0000000000e+00 +1.2000000000e+02 1.2000000000e+02 0.0000000000e+00 0.0000e+00 1.0000e+00
       11 -1    0    0    0    0 -0.0000000000e+00 -0.0000000000e+00 -1.2000000000e+02 1.2000000000e+02 0.0000000000e+00 0.0000e+00 -1.0000e+00
       23  2    1    2    0    0 -4.1718854205e+01 +2.8621992074e+01 +4.6185301250e+00 1.0506994932e+02 9.1971094387e+01 0.0000e+00 0.0000e+00
       25  2    1    2    0    0 +4.1718854205e+01 -2.8621992074e+01 -4.6185301250e+00 1.3493005068e+02 1.2500042612e+02 0.0000e+00 0.0000e+00
      -13  1    3    3    0    0 -4.8129067593e+01 +3.7885916795e+01 +3.6468702944e+01 7.1286156672e+01 0.0000000000e+00 0.0000e+00 1.0000e+00
       13  1    3    3    0    0 +6.4102133880e+00 -9.2639247205e+00 -3.1850172819e+01 3.3783792645e+01 0.0000000000e+00 0.0000e+00 -1.0000e+00
        5  1    4    4  501    0 +3.1368832894e+00 -6.2401260610e+00 -9.8502829789e+00 1.2957518466e+01 4.7000000000e+00 0.0000e+00 1.0000e+00
       -5  1    4    4    0  502 +1.3220710487e+01 -1.6351467046e+01 +2.2395515219e+01 3.1077431719e+01 4.7000000000e+00 0.0000e+00 -1.0000e+00
        5  1    4    4  502    0 +4.0248733630e+01 -1.3447407424e+01 +2.2041438113e+01 4.8049019962e+01 4.7000000000e+00 0.0000e+00 -1.0000e+00
       -5  1    4    4    0  501 -1.4887473201e+01 +7.4170084562e+00 -3.9205200478e+01 4.2846080536e+01 4.7000000000e+00 0.0000e+00 1.0000e+00
</event>
<event>
10      1 +4.6527485e-10 2.40000000e+02 7.81860800e-03 1.03012300e-01
      -11 -1    0    0    0    0 +0.0000000000e+00 +0.0000000000e+00 +1.2000000000e+02 1.2000000000e+02 0.0000000000e+00 0.0000e+00 -1.0000e+00
       11 -1    0    0    0    0 -0.0000000000e+00 -0.0000000000e+00 -1.2000000000e+02 1.2000000000e+02 0.0000000000e+00 0.0000e+00 1.0000e+00
       23  2    1    2    0    0 +5.3610277105e+01 +3.2698178514e+00 -1.7958631750e+00 1.0393509552e+02 8.8963618607e+01 0.0000e+00 0.0000e+00
       25  2    1    2    0    0 -5.3610277105e+01 -3.2698178514e+00 +1.7958631750e+00 1.3606490448e+02 1.2500271832e+02 0.0000e+00 0.0000e+00
      -13  1    3    3    0    0 -3.8332860878e+00 -1.7399351448e+01 -3.1388017058e+01 3.6092092317e+01 0.0000000000e+00 0.0000e+00 1.0000e+00
       13  1    3    3    0    0 +5.7443563193e+01 +2.0669169299e+01 +2.9592153883e+01 6.7843003200e+01 0.0000000000e+00 0.0000e+00 -1.0000e+00
        5  1    4    4  501    0 +2.1983816122e+00 +1.9236340251e+01 +1.2523807715e+01 2.3533070935e+01 4.7000000000e+00 0.0000e+00 -1.0000e+00
       -5  1    4    4    0  501 -3.7998478499e+01 +3.0442053478e+01 -4.0071055640e+00 4.9079016730e+01 4.7000000000e+00 0.0000e+00 -1.0000e+00
        5  1    4    4  502    0 -2.2593312655e+01 -3.9641881709e+01 +2.4865734031e+00 4.5937017855e+01 4.7000000000e+00 0.0000e+00 1.0000e+00
       -5  1    4    4    0  502 +4.7831324378e+00 -1.3306329871e+01 -9.2074123791e+00 1.7515798962e+01 4.7000000000e+00 0.0000e+00 1.0000e+00
</event>
<event>
10      1 +4.6527485e-10 2.40000000e+02 7.81860800e-03 1.03012300e-01
      -11 -1    0    0    0    0 +0.0000000000e+00 +0.0000000000e+00 +1.2000000000e+02 1.2000000000e+02 0.0000000000e+00 0.0000e+00 1.0000e+00
       11 -1    0    0    0    0 -0.0000000000e+00 -0.0000000000e+00 -1.2000000000e+02 1.2000000000e+02 0.0000000000e+00 0.0000e+00 -1.0000e+00
       23  2    1    2    0    0 +2.0665724210e+01 -4.6705875117e+01 -7.5542642685e+00 1.0476372479e+02 9.1158434583e+01 0.0000e+00 0.0000e+00
       25  2    1    2    0    0 -2.0665724210e+01 +4.6705875117e+01 +7.5542642685e+00 1.3523627521e+02 1.2499308900e+02 0.0000e+00 0.0000e+00
      -13  1    3    3    0    0 +2.8240214817e+01 +5.9798133742e+00 -3.4599149770e+01 4.5059616795e+01 0.0000000000e+00 0.0000e+00 -1.0000e+00
       13  1    3    3    0    0 -7.5744906076e+00 -5.2685688491e+01 +2.7044885501e+01 5.9704107995e+01 0.0000000000e+00 0.0000e+00 1.0000e+00
        5  1    4    4  501    0 +3.6441324294e+01 -8.3899778901e+00 +4.1067053737e+00 3.7911962154e+01 4.7000000000e+00 0.0000e+00 -1.0000e+00
       -5  1    4    4    0  502 -2.5874601255e+01 +1.3054217389e+01 -5.8456037987e+00 2.9936076321e+01 4.7000000000e+00 0.0000e+00 1.0000e+00
        5  1    4    4  502    0 -3.6586431889e+01 +4.1747290189e+01 +4.3174979164e-02 5.5709021716e+01 4.7000000000e+00 0.0000e+00 1.0000e+00
       -5  1    4    4    0  501 +5.3539846397e+00 +2.9434542895e-01 +9.2499877142e+00 1.1679215019e+01 4.7000000000e+00 0.0000e+00 -1.0000e+00
</event>
<event>
10      1 +4.6527485e-10 2.40000000e+02 7.81860800e-03 1.03012300e-01
      -11 -1    0    0    0    0 +0.0000000000e+00 +0.0000000000e+00 +1.2000000000e+02 1.2000000000e+02 0.0000000000e+00 0.0000e+00 1.0000e+00
       11 -1    0    0    0    0 -0.0000000000e+00 -0.0000000000e+00 -1.2000000000e+02 1.2000000000e+02 0.0000000000e+00 0.0000e+00 -1.0000e+00
       23  2    1    2    0    0 +4.1689370134e+01 +2.3645945285e+01 -1.7956801704e+01 1.0492788042e+02 9.1598466421e+01 0.0000e+00 0.0000e+00
       25  2    1    2    0    0 -4.1689370134e+01 -2.3645945285e+01 +1.7956801704e+01 1.3507211958e+02 1.2499958580e+02 0.0000e+00 0.0000e+00
      -11  1    3    3    0    0 +1.5104389284e+01 +5.1401592513e+01 -3.3812025952e+01 6.3352343189e+01 0.0000000000e+00 0.0000e+00 1.0000e+00
       11  1    3    3    0    0 +2.6584980850e+01 -2.7755647228e+01 +1.5855224248e+01 4.1575537228e+01 0.0000000000e+00 0.0000e+00 -1.0000e+00
        5  1    4    4  501    0 +8.0666365492e+00 -2.1686063131e+01 -7.1572802593e+00 2.4671291414e+01 4.7000000000e+00 0.0000e+00 -1.0000e+00
       -5  1    4    4    0  502 -4.7561664345e+01 +3.6038135474e+01 +1.5612849057e+01 6.1860408820e+01 4.7000000000e+00 0.0000e+00 1.0000e+00
        5  1    4    4  502    0 +7.8017417553e-01 +2.6068283065e+00 -2.2899865221e+00 5.8939175287e+00 4.7000000000e+00 0.0000e+00 -1.0000e+00
       -5  1    4    4    0  501 -2.9745165136e+00 -4.0604845935e+01 +1.1791219429e+01 4.2646501821e+01 4.7000000000e+00 0.0000e+00 -1.0000e+00
</event>
<event>
10      1 +4.6527485e-10 2.40000000e+02 7.81860800e-03 1.03012300e-01
      -11 -1    0    0    0    0 +0.0000000000e+00 +0.0000000000e+00 +1.2000000000e+02 1.2000000000e+02 0.0000000000e+00 0.0000e+00 -1.0000e+00
       11 -1    0    0    0    0 -0.0000000000e+00 -0.0000000000e+00 -1.2000000000e+02 1.2000000000e+02 0.0000000000e+00 0.0000e+00 1.0000e+00
       23  2    1    2    0    0 +3.2919636436e+00 -6.1242416223e+00 +5.2409198230e+01 1.0427879334e+02 8.9883253837e+01 0.0000e+00 0.0000e+00
       25  2    1    2    0    0 -3.2919636436e+00 +6.1242416223e+00 -5.2409198230e+01 1.3572120666e+02 1.2500071408e+02 0.0000e+00 0.0000e+00
      -11  1    3    3    0    0 -1.8259009866e+01 -4.8638380464e+00 -2.0712663796e+01 2.8036811576e+01 0.0000000000e+00 0.0000e+00 1.0000e+00
       11  1    3    3    0    0 +2.1550973509e+01 -1.2604035759e+00 +7.3121862026e+01 7.6241981759e+01 0.0000000000e+00 0.0000e+00 -1.0000e+00
        5  1    4    4  501    0 -2.2928586865e+00 +1.2077782571e+01 -3.1312574893e+01 3.3966121051e+01 4.7000000000e+00 0.0000e+00 1.0000e+00
       -5  1    4    4    0  501 +1.3505292552e+01 +2.9930331142e+00 -3.8107974214e+01 4.0812484277e+01 4.7000000000e+00 0.0000e+00 1.0000e+00
        5  1    4    4  502    0 -1.2666857643e+01 -3.1969509760e+01 +1.2843851782e+01 3.7007477156e+01 4.7000000000e+00 0.0000e+00 -1.0000e+00
       -5  1    4    4    0  502 -1.8375398654e+00 +2.3022935697e+01 +4.1674990949e+00 2.3935124181e+01 4.7000000000e+00 0.0000e+00 -1.0000e+00
</event>
<event>
10      1 +4.6527485e-10 2.40000000e+02 7.81860800e-03 1.03012300e-01
      -11 -1    0    0    0    0 +0.0000000000e+00 +0.0000000000e+00 +1.2000000000e+02 1.2000000000e+02 0.0000000000e+00 0.0000e+00 1.0000e+00
       11 -1    0    0    0    0 -0.0000000000e+00 -0.0000000000e+00 -1.2000000000e+02 1.2000000000e+02 0.0000000000e+00 0.0000e+00 -1.0000e+00
       23  2    1    2    0    0 +3.1470845573e+01 -2.9415582350e+01 +2.9644409376e+01 1.0450172900e+02 9.0477233326e+01 0.0000e+00 0.0000e+00
       25  2    1    2    0    0 -3.1470845573e+01 +2.9415582350e+01 -2.9644409376e+01 1.3549827100e+02 1.2500119932e+02 0.0000e+00 0.0000e+00
      -13  1    3    3    0    0 +7.3522433295e-02 -2.8690050714e+01 +5.6378183350e+01 6.3258390537e+01 0.0000000000e+00 0.0000e+00 1.0000e+00
       13  1    3    3    0    0 +3.1397323140e+01 -7.2553163622e-01 -2.6733773974e+01 4.1243338461e+01 0.0000000000e+00 0.0000e+00 -1.0000e+00
        5  1    4    4  501    0 +2.9879569487e+01 -1.7938605361e+01 -2.2277466510e+01 4.1628809124e+01 4.7000000000e+00 0.0000e+00 -1.0000e+00
       -5  1    4    4    0  501 +5.1510563889e+00 +2.9663620949e+00 -4.7998870951e-01 7.5929622125e+00 4.7000000000e+00 0.0000e+00 -1.0000e+00
        5  1    4    4  502    0 -6.6809937758e+01 +3.5547759454e+01 -7.7692197134e+00 7.6221137229e+01 4.7000000000e+00 0.0000e+00 1.0000e+00
       -5  1    4    4    0  502 +3.0846630939e-01 +8.8400661619e+00 +8.8226555654e-01 1.0055362436e+01 4.7000000000e+00 0.0000e+00 1.0000e+00
</event>
<event>
10      1 +4.6527485e-10 2.40000000e+02 7.81860800e-03 1.03012300e-01
      -11 -1    0    0    0    0 +0.0000000000e+00 +0.0000000000e+00 +1.2000000000e+02 1.2000000000e+02 0.0000000000e+00 0.0000e+00 1.0000e+00
       11 -1    0    0    0    0 -0.0000000000e+00 -0.0000000000e+00 -1.2000000000e+02 1.2000000000e+02 0.0000000000e+00 0.0000e+00 -1.0000e+00
       23  2    1    2    0    0 -3.0044080889e+00 +3.0115485508e+01 -4.7637803787e+01 1.0285178620e+02 8.5983490506e+01 0.0000e+00 0.0000e+00
       25  2    1    2    0    0 +3.0044080889e+00 -3.0115485508e+01 +4.7637803787e+01 1.3714821380e+02 1.2499721302e+02 0.0000e+00 0.0000e+00
      -13  1    3    3    0    0 +2.0888478438e+01 +6.6278408624e+00 -6.2476516323e+01 6.6208548525e+01 0.0000000000e+00 0.0000e+00 -1.0000e+00
       13  1    3    3    0    0 -2.3892886527e+01 +2.3487644645e+01 +1.4838712536e+01 3.6643237675e+01 0.0000000000e+00 0.0000e+00 1.0000e+00
        5  1    4    4  501    0 -3.6002854883e+00 -1.5874733958e+01 +4.2830303952e+01 4.6059680529e+01 4.7000000000e+00 0.0000e+00 -1.0000e+00
       -5  1    4    4    0  501 -1.5693090402e+01 +3.7020300212e+00 +3.8513327052e+01 4.2016002586e+01 4.7000000000e+00 0.0000e+00 -1.0000e+00
        5  1    4    4  502    0 +1.4211824118e+01 -1.3128846463e+00 -7.8911800889e+00 1.6972340264e+01 4.7000000000e+00 0.0000e+00 -1.0000e+00
       -5  1    4    4    0  502 +8.0859598621e+00 -1.6629896925e+01 -2.5814647129e+01 3.2100190420e+01 4.7000000000e+00 0.0000e+00 -1.0000e+00
</event>
<event>
10      1 +4.6527485e-10 2.40000000e+02 7.81860800e-03 1.03012300e-01
      -11 -1    0    0    0    0 +0.0000000000e+00 +0.0000000000e+00 +1.2000000000e+02 1.2000000000e+02 0.0000000000e+00 0.0000e+00 1.0000e+00
       11 -1    0    0    0    0 -0.0000000000e+00 -0.0000000000e+00 -1.2000000000e+02 1.2000000000e+02 0.0000000000e+00 0.0000e+00 -1.0000e+00
       23  2    1    2    0    0 +4.9448043855e+01 -1.7323351108e+01 +6.5851556790e+00 1.0430205229e+02 8.9946352354e+01 0.0000e+00 0.0000e+00
       25  2    1    2    0    0 -4.9448043855e+01 +1.7323351108e+01 -6.5851556790e+00 1.3569794771e+02 1.2500144480e+02 0.0000e+00 0.0000e+00
      -11  1    3    3    0    0 +7.3797450899e+01 -9.3761155522e+00 -8.0122552782e+00 7.4820929804e+01 0.0000000000e+00 0.0000e+00 1.0000e+00
       11  1    3    3    0    0 -2.4349407044e+01 -7.9472355554e+00 +1.4597410957e+01 2.9481122486e+01 0.0000000000e+00 0.0000e+00 -1.0000e+00
        5  1    4    4  501    0 -5.5621073601e-01 +2.7361997457e+00 +4.7213373308e+00 7.2233777156e+00 4.7000000000e+00 0.0000e+00 -1.0000e+00
       -5  1    4    4    0  502 -6.1626476616e+00 -8.1388766841e+00 -3.3530059181e+00 1.1728264516e+01 4.7000000000e+00 0.0000e+00 1.0000e+00
        5  1    4    4  502    0 -2.7619610632e+01 -4.1528542333e+01 -6.8600779557e+00 5.0562964602e+01 4.7000000000e+00 0.0000e+00 -1.0000e+00
       -5  1    4    4    0  501 -1.5109574826e+01 +6.4254570379e+01 -1.0934091360e+00 6.6183340876e+01 4.7000000000e+00 0.0000e+00 -1.0000e+00
</event>
<event>
10      1 +4.6527485e-10 2.40000000e+02 7.81860800e-03 1.03012300e-01
      -11 -1    0    0    0    0 +0.0000000000e+00 +0.0000000000e+00 +1.2000000000e+02 1.2000000000e+02 0.0000000000e+00 0.0000e+00 -1.0000e+00
       11 -1    0    0    0    0 -0.0000000000e+00 -0.0000000000e+00 -1.2000000000e+02 1.2000000000e+02 0.0000000000e+00 0.0000e+00 1.0000e+00
       23  2    1    2    0    0 +3.6128289061e+01 -3.5722306095e+01 +8.7236299637e+00 1.0478702114e+02 9.1229828763e+01 0.0000e+00 0.0000e+00
       25  2    1    2    0    0 -3.6128289061e+01 +3.5722306095e+01 -8.7236299637e+00 1.3521297886e+02 1.2500044604e+02 0.0000e+00 0.0000e+00
      -13  1    3    3    0    0 +2.0839432059e+01 -3.7548019561e+01 +4.6919248409e+01 6.3604650559e+01 0.0000000000e+00 0.0000e+00 -1.0000e+00
       13  1    3    3    0    0 +1.5288857002e+01 +1.8257134658e+00 -3.8195618445e+01 4.1182370579e+01 0.0000000000e+00 0.0000e+00 1.0000e+00
        5  1    4    4  501    0 -4.7932381005e+01 +6.0241843641e+01 -1.1435372302e+01 7.7970831814e+01 4.7000000000e+00 0.0000e+00 1.0000e+00
       -5  1    4    4    0  502 -5.9079471881e+00 -4.3455446333e+00 +9.8632871802e-01 8.7664384147e+00 4.7000000000e+00 0.0000e+00 1.0000e+00
        5  1    4    4  502    0 +2.0141249615e+00 -4.9961764314e+00 +1.8960505032e+01 2.0263494994e+01 4.7000000000e+00 0.0000e+00 -1.0000e+00
       -5  1    4    4    0  501 +1.5697914170e+01 -1.5177816481e+01 -1.7235091412e+01 2.8212213639e+01 4.7000000000e+00 0.0000e+00 -1.0000e+00
</event>
<event>
10      1 +4.6527485e-10 2.40000000e+02 7.81860800e-03 1.03012300e-01
      -11 -1    0    0    0    0 +0.0000000000e+00 +0.0000000000e+00 +1.2000000000e+02 1.2000000000e+02 0.0000000000e+00 0.0000e+00 -1.0000e+00
       11 -1    0    0    0    0 -0.0000000000e+00 -0.0000000000e+00 -1.2000000000e+02 1.2000000000e+02 0.0000000000e+00 0.0000e+00 1.0000e+00
       23  2    1    2    0    0 -2.2338032785e+00 -5.0780627948e+01 +6.5735497906e+00 1.0489501755e+02 9.1520987205e+01 0.0000e+00 0.0000e+00
       25  2    1    2    0    0 +2.2338032785e+00 +5.0780627948e+01 -6.5735497906e+00 1.3510498245e+02 1.2500593055e+02 0.0000e+00 0.0000e+00
      -13  1    3    3    0    0 +1.1664313590e+01 -2.7443464097e+01 -4.0651544640e+01 5.0415751653e+01 0.0000000000e+00 0.0000e+00 1.0000e+00
       13  1    3    3    0    0 -1.3898116869e+01 -2.3337163851e+01 +4.7225094431e+01 5.4479265901e+01 0.0000000000e+00 0.0000e+00 -1.0000e+00
        5  1    4    4  501    0 -3.2246231326e+01 +1.9794377607e+01 +3.9586260256e+01 5.4961794190e+01 4.7000000000e+00 0.0000e+00 1.0000e+00
       -5  1    4    4    0  502 +1.9035479704e+01 +2.0589864714e+01 -4.2382914663e+01 5.1036197662e+01 4.7000000000e+00 0.0000e+00 1.0000e+00
        5  1    4    4  502    0 +1.3725527148e+01 +4.0547562574e+00 -1.0692325624e+01 1.8472871218e+01 4.7000000000e+00 0.0000e+00 1.0000e+00
       -5  1    4    4    0  501 +1.7190277517e+00 +6.3416293695e+00 +6.9154302404e+00 1.0634119375e+01 4.7000000000e+00 0.0000e+00 1.0000e+00
</event>
<event>
10      1 +4.6527485e-10 2.40000000e+02 7.81860800e-03 1.03012300e-01
      -11 -1    0    0    0    0 +0.0000000000e+00 +0.0000000000e+00 +1.2000000000e+02 1.2000000000e+02 0.0000000000e+00 0.0000e+00 1.0000e+00
       11 -1    0    0    0    0 -0.0000000000e+00 -0.0000000000e+00 -1.2000000000e+02 1.2000000000e+02 0.0000000000e+00 0.0000e+00 -1.0000e+00
       23  2    1    2    0    0 -2.5314332257e+01 -4.6459544249e+01 -3.7508921784e-01 1.0426337997e+02 8.9841009796e+01 0.0000e+00 0.0000e+00
       25  2    1    2    0    0 +2.5314332257e+01 +4.6459544249e+01 +3.7508921784e-01 1.3573662003e+02 1.2499993862e+02 0.0000e+00 0.0000e+00
      -13  1    3    3    0    0 +3.0371894440e+01 -1.8693566091e+01 -1.7499028109e+01 3.9725525419e+01 0.0000000000e+00 0.0000e+00 1.0000e+00
       13  1    3    3    0    0 -5.5686226697e+01 -2.7765978158e+01 +1.7123938891e+01 6.4537854550e+01 0.0000000000e+00 0.0000e+00 -1.0000e+00
        5  1    4    4  501    0 +7.0326601157e+00 -1.5813854926e+01 -2.5098865083e+01 3.0847679724e+01 4.7000000000e+00 0.0000e+00 1.0000e+00
       -5  1    4    4    0  502 -3.1147640678e+00 +6.1002210471e+01 +4.0518308706e+01 7.3449266694e+01 4.7000000000e+00 0.0000e+00 1.0000e+00
        5  1    4    4  502    0 +3.8241948651e+00 +4.6170377009e+00 -3.0748078957e-02 7.6179031854e+00 4.7000000000e+00 0.0000e+00 -1.0000e+00
       -5  1    4    4    0  501 +1.7572241344e+01 -3.3458489973e+00 -1.5013606326e+01 2.3821770427e+01 4.7000000000e+00 0.0000e+00 1.0000e+00
</event>
<event>
10      1 +4.6527485e-10 2.40000000e+02 7.81860800e-03 1.03012300e-01
      -11 -1    0    0    0    0 +0.0000000000e+00 +0.0000000000e+00 +1.2000000000e+02 1.2000000000e+02 0.0000000000e+00 0.0000e+00 -1.0000e+00
       11 -1    0    0    0    0 -0.0000000000e+00 -0.0000000000e+00 -1.2000000000e+02 1.2000000000e+02 0.0000000000e+00 0.0000e+00 1.0000e+00
       23  2    1    2    0    0 -1.5445416790e+01 -4.0809781108e+01 +2.8180611625e+01 1.0463699667e+02 9.0833667030e+01 0.0000e+00 0.0000e+00
       25  2    1    2    0    0 +1.5445416790e+01 +4.0809781108e+01 -2.8180611625e+01 1.3536300333e+02 1.2499998666e+02 0.0000e+00 0.0000e+00
      -13  1    3    3    0    0 -2.5402593530e+01 -3.8520857579e+01 -2.3621147460e+01 5.1837311215e+01 0.0000000000e+00 0.0000e+00 1.0000e+00
       13  1    3    3    0    0 +9.9571767402e+00 -2.2889235289e+00 +5.1801759085e+01 5.2799685452e+01 0.0000000000e+00 0.0000e+00 -1.0000e+00
        5  1    4    4  501    0 -1.0300155687e+01 +8.0769778410e-01 -6.7794142260e+00 1.3221045350e+01 4.7000000000e+00 0.0000e+00 -1.0000e+00
       -5  1    4    4    0  501 -1.5802043837e+01 +6.1292741693e-01 -5.1298421514e+01 5.3885975164e+01 4.7000000000e+00 0.0000e+00 -1.0000e+00
        5  1    4    4  502    0 +1.0886847782e+01 +3.0066195490e+00 +7.3936914355e-01 1.2255606165e+01 4.7000000000e+00 0.0000e+00 1.0000e+00
       -5  1    4    4    0  502 +3.0660768532e+01 +3.6382536358e+01 +2.9157854972e+01 5.6000376654e+01 4.7000000000e+00 0.0000e+00 1.0000e+00
</event>
<event>
10      1 +4.6527485e-10 2.40000000e+02 7.81860800e-03 1.03012300e-01
      -11 -1    0    0    0    0 +0.0000000000e+00 +0.0000000000e+00 +1.2000000000e+02 1.2000000000e+02 0.0000000000e+00 0.0000e+00 1.0000e+00
       11 -1    0    0    0    0 -0.0000000000e+00 -0.0000000000e+00 -1.2000000000e+02 1.2000000000e+02 0.0000000000e+00 0.0000e+00 -1.0000e+00
       23  2    1    2    0    0 -3.6612686365e+01 -5.0607251464e-01 +3.2941956541e+01 1.0564627421e+02 9.3462387313e+01 0.0000e+00 0.0000e+00
       25  2    1    2    0    0 +3.6612686365e+01 +5.0607251464e-01 -3.2941956541e+01 1.3435372579e+02 1.2500002488e+02 0.0000e+00 0.0000e+00
      -11  1    3    3    0    0 +1.0428721386e+01 +2.2230844630e+01 +4.5685541653e+01 5.1866534479e+01 0.0000000000e+00 0.0000e+00 1.0000e+00
       11  1    3    3    0    0 -4.7041407750e+01 -2.2736917145e+01 -1.2743585113e+01 5.3779739735e+01 0.0000000000e+00 0.0000e+00 -1.0000e+00
        5  1    4    4  501    0 +4.3840503078e+00 -1.8013562674e+01 -5.2176322320e+00 1.9824783061e+01 4.7000000000e+00 0.0000e+00 -1.0000e+00
       -5  1    4    4    0  501 -7.3378641301e+00 +2.4947605882e+00 -5.1630254764e+01 5.2419855850e+01 4.7000000000e+00 0.0000e+00 -1.0000e+00
        5  1    4    4  502    0 +3.4670481258e+01 -4.6990527000e+00 +1.7370034398e+01 3.9343760139e+01 4.7000000000e+00 0.0000e+00 -1.0000e+00
       -5  1    4    4    0  502 +4.8960189292e+00 +2.0723927300e+01 +6.5358960575e+00 2.2765326736e+01 4.7000000000e+00 0.0000e+00 -1.0000e+00
</event>
<event>
10      1 +4.6527485e-10 2.40000000e+02 7.81860800e-03 1.03012300e-01
      -11 -1    0    0    0    0 +0.0000000000e+00 +0.0000000000e+00 +1.2000000000e+02 1.2000000000e+02 0.0000000000e+00 0.0000e+00 -1.0000e+00
       11 -1    0    0    0    0 -0.0000000000e+00 -0.0000000000e+00 -1.2000000000e+02 1.2000000000e+02 0.0000000000e+00 0.0000e+00 1.0000e+00
       23  2    1    2    0    0 -2.1458390420e+00 +2.2917695297e+01 +4.7091504893e+01 1.0445555235e+02 9.0352239601e+01 0.0000e+00 0.0000e+00
       25  2    1    2    0    0 +2.1458390420e+00 -2.2917695297e+01 -4.7091504893e+01 1.3554444765e+02 1.2499944829e+02 0.0000e+00 0.0000e+00
      -11  1    3    3    0    0 -2.9520730246e+01 +3.1100129175e+01 -6.8411052412e+00 4.3422255467e+01 0.0000000000e+00 0.0000e+00 1.0000e+00
       11  1    3    3    0    0 +2.7374891204e+01 -8.1824338776e+00 +5.3932610134e+01 6.1033296884e+01 0.0000000000e+00 0.0000e+00 -1.0000e+00
        5  1    4    4  501    0 +3.8012548264e+00 -4.9659009442e+01 -3.3606559880e+01 6.0265725118e+01 4.7000000000e+00 0.0000e+00 1.0000e+00
       -5  1    4    4    0  501 -1.4477867822e+01 -1.1553267096e+01 -7.7438047684e+00 2.0618999723e+01 4.7000000000e+00 0.0000e+00 1.0000e+00
        5  1    4    4  502    0 -6.9103156933e+00 +1.1821417275e+01 -1.4172278982e+01 2.0259364771e+01 4.7000000000e+00 0.0000e+00 -1.0000e+00
       -5  1    4    4    0  502 +1.9732767731e+01 +2.6473163966e+01 +8.4311387368e+00 3.4400358037e+01 4.7000000000e+00 0.0000e+00 -1.0000e+00
</event>
<event>
10      1 +4.6527485e-10 2.40000000e+02 7.81860800e-03 1.03012300e-01
      -11 -1    0    0    0    0 +0.0000000000e+00 +0.0000000000e+00 +1.2000000000e+02 1.2000000000e+02 0.0000000000e+00 0.0000e+00 1.0000e+00
       11 -1    0    0    0    0 -0.0000000000e+00 -0.0000000000e+00 -1.2000000000e+02 1.2000000000e+02 0.0000000000e+00 0.0000e+00 -1.0000e+00
       23  2    1    2    0    0 -1.5632528729e+01 +2.3234461288e+01 -4.1805623701e+01 1.0526176808e+02 9.2456008458e+01 0.0000e+00 0.0000e+00
       25  2    1    2    0    0 +1.5632528729e+01 -2.3234461288e+01 +4.1805623701e+01 1.3473823192e+02 1.2498985888e+02 0.0000e+00 0.0000e+00
      -11  1    3    3    0    0 -4.2395518167e+01 +1.0173110830e+01 +1.0705359613e+01 4.4894062737e+01 0.0000000000e+00 0.0000e+00 1.0000e+00
       11  1    3    3    0    0 +2.6762989438e+01 +1.3061350458e+01 -5.2510983314e+01 6.0367705340e+01 0.0000000000e+00 0.0000e+00 -1.0000e+00
        5  1    4    4  501    0 +3.7363931739e+01 -3.1010314178e+00 -8.0239582528e+00 3.8628405311e+01 4.7000000000e+00 0.0000e+00 1.0000e+00
       -5  1    4    4    0  501 +2.3552156899e+01 -6.7113767671e+00 +8.9380818499e+00 2.6490110983e+01 4.7000000000e+00 0.0000e+00 1.0000e+00
        5  1    4    4  502    0 -1.1124744945e+01 -1.7819639329e+01 +1.4102715269e+01 2.5734725059e+01 4.7000000000e+00 0.0000e+00 -1.0000e+00
       -5  1    4    4    0  502 -3.4158814963e+01 +4.3975862257e+00 +2.6788784835e+01 4.3884990569e+01 4.7000000000e+00 0.0000e+00 -1.0000e+00
</event>
<event>
10      1 +4.6527485e-10 2.40000000e+02 7.81860800e-03 1.03012300e-01
      -11 -1    0    0    0    0 +0.0000000000e+00 +0.0000000000e+00 +1.2000000000e+02 1.2000000000e+02 0.0000000000e+00 0.0000e+00 1.0000e+00
       11 -1    0    0    0    0 -0.0000000000e+00 -0.0000000000e+00 -1.2000000000e+02 1.2000000000e+02 0.0000000000e+00 0.0000e+00 -1.0000e+00
       23  2    1    2    0    0 -3.6580124140e+01 +9.0201640321e+00 -3.4599992891e+01 1.0491308069e+02 9.1597631793e+01 0.0000e+00 0.0000e+00
       25  2    1    2    0    0 +3.6580124140e+01 -9.0201640321e+00 +3.4599992891e+01 1.3508691931e+02 1.2502738668e+02 0.0000e+00 0.0000e+00
      -13  1    3    3    0    0 -6.2687304116e+01 +6.8519966544e+00 -2.0011834772e+00 6.3092413892e+01 0.0000000000e+00 0.0000e+00 1.0000e+00
       13  1    3    3    0    0 +2.6107179975e+01 +2.1681673777e+00 -3.2598809414e+01 4.1820666796e+01 0.0000000000e+00 0.0000e+00 -1.0000e+00
        5  1    4    4  501    0 +1.2553395117e+01 -1.9626520432e+01 -8.6812356749e+00 2.5303001523e+01 4.7000000000e+00 0.0000e+00 -1.0000e+00
       -5  1    4    4    0  501 +2.2722611825e+01 -3.7424879047e+01 +1.6466127720e+01 4.7012360310e+01 4.7000000000e+00 0.0000e+00 -1.0000e+00
        5  1    4    4  502    0 -2.7240623325e+00 +3.9764468223e+01 +7.4424156725e+00 4.0818047475e+01 4.7000000000e+00 0.0000e+00 1.0000e+00
       -5  1    4    4    0  502 +4.0281795310e+00 +8.2667672241e+00 +1.9372685174e+01 2.1953510005e+01 4.7000000000e+00 0.0000e+00 1.0000e+00
</event>
<event>
10      1 +4.6527485e-10 2.40000000e+02 7.81860800e-03 1.03012300e-01
      -11 -1    0    0    0    0 +0.0000000000e+00 +0.0000000000e+00 +1.2000000000e+02 1.2000000000e+02 0.0000000000e+00 0.0000e+00 -1.0000e+00
       11 -1    0    0    0    0 -0.0000000000e+00 -0.0000000000e+00 -1.2000000000e+02 1.2000000000e+02 0.0000000000e+00 0.0000e+00 1.0000e+00
       23  2    1    2    0    0 +5.3706090586e+01 -5.1671909463e-01 +1.2702222459e+01 1.0336145829e+02 8.7393554910e+01 0.0000e+00 0.0000e+00
       25  2    1    2    0    0 -5.3706090586e+01 +5.1671909463e-01 -1.2702222459e+01 1.3663854171e+02 1.2499653379e+02 0.0000e+00 0.0000e+00
      -13  1    3    3    0    0 +3.5914922397e+01 -2.5926883481e+01 -2.7836918473e+01 5.2316144429e+01 0.0000000000e+00 0.0000e+00 1.0000e+00
       13  1    3    3    0    0 +1.7791168189e+01 +2.5410164386e+01 +4.0539140932e+01 5.1045313861e+01 0.0000000000e+00 0.0000e+00 -1.0000e+00
        5  1    4    4  501    0 -1.7811888768e+01 -9.0460836170e+00 -4.2624596773e+00 2.0960762695e+01 4.7000000000e+00 0.0000e+00 -1.0000e+00
       -5  1    4    4    0  502 -1.3993460443e+01 +1.9500638866e+01 -1.0306403100e+01 2.6540606554e+01 4.7000000000e+00 0.0000e+00 1.0000e+00
        5  1    4    4  502    0 -1.7279141824e+01 +1.8011097915e+01 -3.4474588142e+01 4.2820037574e+01 4.7000000000e+00 0.0000e+00 1.0000e+00
       -5  1    4    4    0  501 -4.6215995513e+00 -2.7948934070e+01 +3.6341228461e+01 4.6317134886e+01 4.7000000000e+00 0.0000e+00 -1.0000e+00
</event>
<event>
10      1 +4.6527485e-10 2.40000000e+02 7.81860800e-03 1.03012300e-01
      -11 -1    0    0    0    0 +0.0000000000e+00 +0.0000000000e+00 +1.2000000000e+02 1.2000000000e+02 0.0000000000e+00 0.0000e+00 1.0000e+00
       11 -1    0    0    0    0 -0.0000000000e+00 -0.0000000000e+00 -1.2000000000e+02 1.2000000000e+02 0.0000000000e+00 0.0000e+00 -1.0000e+00
       23  2    1    2    0    0 -7.4985816326e+00 -4.7664330845e+00 -5.1618416809e+01 1.0445104650e+02 9.0369311993e+01 0.0000e+00 0.0000e+00
       25  2    1    2    0    0 +7.4985816326e+00 +4.7664330845e+00 +5.1618416809e+01 1.3554895350e+02 1.2502043925e+02 0.0000e+00 0.0000e+00
      -13  1    3    3    0    0 -1.5076777121e+01 -6.5958699450e+00 -7.6565596200e+01 7.8314144509e+01 0.0000000000e+00 0.0000e+00 -1.0000e+00
       13  1    3    3    0    0 +7.5781954881e+00 +1.8294368605e+00 +2.4947179391e+01 2.6136901991e+01 0.0000000000e+00 0.0000e+00 1.0000e+00
        5  1    4    4  501    0 -4.5820743366e+00 -1.7543540436e+01 +7.4088175497e+00 2.0143281603e+01 4.7000000000e+00 0.0000e+00 1.0000e+00
       -5  1    4    4    0  501 -2.4818534770e+01 -2.2740161046e+01 -6.9154012883e+00 3.4684108285e+01 4.7000000000e+00 0.0000e+00 1.0000e+00
        5  1    4    4  502    0 +8.1512106058e+00 +1.8084585289e+01 +2.8472261823e+01 3.5017911885e+01 4.7000000000e+00 0.0000e+00 -1.0000e+00
       -5  1    4    4    0  502 +2.8747980133e+01 +2.6965549277e+01 +2.2652738724e+01 4.5703651728e+01 4.7000000000e+00 0.0000e+00 -1.0000e+00
</event>
<event>
10      1 +4.6527485e-10 2.40000000e+02 7.81860800e-03 1.03012300e-01
      -11 -1    0    0    0    0 +0.0000000000e+00 +0.0000000000e+00 +1.2000000000e+02 1.2000000000e+02 0.0000000000e+00 0.0000e+00 1.0000e+00
       11 -1    0    0    0    0 -0.0000000000e+00 -0.0000000000e+00 -1.2000000000e+02 1.2000000000e+02 0.0000000000e+00 0.0000e+00 -1.0000e+00
       23  2    1    2    0    0 +1.0938166635e+01 -4.4861103463e+01 -2.4214643896e+01 1.0456457446e+02 9.0637956504e+01 0.0000e+00 0.0000e+00
       25  2    1    2    0    0 -1.0938166635e+01 +4.4861103463e+01 +2.4214643896e+01 1.3543542554e+02 1.2499697364e+02 0.0000e+00 0.0000e+00
      -13  1    3    3    0    0 -1.0011609608e+01 -2.6582787666e+01 +3.1427915033e+01 4.2362610524e+01 0.0000000000e+00 0.0000e+00 1.0000e+00
       13  1    3    3    0    0 +2.0949776243e+01 -1.8278315797e+01 -5.5642558930e+01 6.2201963934e+01 0.0000000000e+00 0.0000e+00 -1.0000e+00
        5  1    4    4  501    0 -1.7747002727e+00 -3.1322529823e+00 -1.2401665441e+01 1.3742338793e+01 4.7000000000e+00 0.0000e+00 -1.0000e+00
       -5  1    4    4    0  502 +1.2967483537e+00 +1.3140009943e+01 +2.3122257727e+00 1.4204851482e+01 4.7000000000e+00 0.0000e+00 1.0000e+00
        5  1    4    4  502    0 -1.9615731250e+01 +6.1562652713e+01 +4.2783317087e+01 7.7635297014e+01 4.7000000000e+00 0.0000e+00 1.0000e+00
       -5  1    4    4    0  501 +9.1555165343e+00 -2.6709306210e+01 -8.4792335224e+00 2.9852938253e+01 4.7000000000e+00 0.0000e+00 -1.0000e+00
</event>
<event>
10      1 +4.6527485e-10 2.40000000e+02 7.81860800e-03 1.03012300e-01
      -11 -1    0    0    0    0 +0.0000000000e+00 +0.0000000000e+00 +1.2000000000e+02 1.2000000000e+02 0.0000000000e+00 0.0000e+00 1.0000e+00
       11 -1    0    0    0    0 -0.0000000000e+00 -0.0000000000e+00 -1.2000000000e+02 1.2000000000e+02 0.0000000000e+00 0.0000e+00 -1.0000e+00
       23  2    1    2    0    0 +2.8133347741e+01 -2.6442154086e+01 -3.6663074986e+01 1.0413203494e+02 8.9490931746e+01 0.0000e+00 0.0000e+00
       25  2    1    2    0    0 -2.8133347741e+01 +2.6442154086e+01 +3.6663074986e+01 1.3586796506e+02 1.2500100038e+02 0.0000e+00 0.0000e+00
      -11  1    3    3    0    0 -1.7022623016e+01 -4.8768131092e+00 -4.9414760352e+01 5.2491633058e+01 0.0000000000e+00 0.0000e+00 -1.0000e+00
       11  1    3    3    0    0 +4.5155970757e+01 -2.1565340977e+01 +1.2751685366e+01 5.1640401878e+01 0.0000000000e+00 0.0000e+00 1.0000e+00
        5  1    4    4  501    0 -8.4052089531e+00 +1.0409833414e+01 +2.8925925529e+01 3.2215079341e+01 4.7000000000e+00 0.0000e+00 -1.0000e+00
       -5  1    4    4    0  501 -4.4039101826e+01 +2.3532600807e+01 -2.6202773774e+01 5.6585343896e+01 4.7000000000e+00 0.0000e+00 -1.0000e+00
        5  1    4    4  502    0 +1.2720937088e+01 -1.1568063900e+01 +1.2000698512e+01 2.1488348182e+01 4.7000000000e+00 0.0000e+00 1.0000e+00
       -5  1    4    4    0  502 +1.1590025950e+01 +4.0677837657e+00 +2.1939224718e+01 2.5579193645e+01 4.7000000000e+00 0.0000e+00 1.0000e+00
</event>
<event>
10      1 +4.6527485e-10 2.40000000e+02 7.81860800e-03 1.03012300e-01
      -11 -1    0    0    0    0 +0.0000000000e+00 +0.0000000000e+00 +1.2000000000e+02 1.2000000000e+02 0.0000000000e+00 0.0000e+00 -1.0000e+00
       11 -1    0    0    0    0 -0.0000000000e+00 -0.0000000000e+00 -1.2000000000e+02 1.2000000000e+02 0.0000000000e+00 0.0000e+00 1.0000e+00
       23  2    1    2    0    0 -4.2641016068e+00 -4.7729210501e+01 +1.6703790163e+01 1.0509314725e+02 9.2028761244e+01 0.0000e+00 0.0000e+00
       25  2    1    2    0    0 +4.2641016068e+00 +4.7729210501e+01 -1.6703790163e+01 1.3490685275e+02 1.2499832885e+02 0.0000e+00 0.0000e+00
      -13  1    3    3    0    0 +1.8314312415e+01 -6.0068278470e+01 -1.4698930404e+01 6.4495508934e+01 0.0000000000e+00 0.0000e+00 1.0000e+00
       13  1    3    3    0    0 -2.2578414022e+01 +1.2339067969e+01 +3.1402720568e+01 4.0597638319e+01 0.0000000000e+00 0.0000e+00 -1.0000e+00
        5  1    4    4  501    0 +3.1368378843e+00 +4.1671343697e+00 -9.8891243765e+00 1.2128047728e+01 4.7000000000e+00 0.0000e+00 1.0000e+00
       -5  1    4    4    0  501 +4.0774018865e-01 -1.2283023760e+01 -4.7217913598e+01 4.9016938800e+01 4.7000000000e+00 0.0000e+00 1.0000e+00
        5  1    4    4  502    0 +6.5258386237e+00 +4.9421176731e+01 +3.9671398936e+01 6.3882307197e+01 4.7000000000e+00 0.0000e+00 1.0000e+00
       -5  1    4    4    0  502 -5.8063150898e+00 +6.4239231609e+00 +7.3184887511e-01 9.8795590223e+00 4.7000000000e+00 0.0000e+00 1.0000e+00
</event>
<event>
10      1 +4.6527485e-10 2.40000000e+02 7.81860800e-03 1.03012300e-01
      -11 -1    0    0    0    0 +0.0000000000e+00 +0.0000000000e+00 +1.2000000000e+02 1.2000000000e+02 0.0000000000e+00 0.0000e+00 -1.0000e+00
       11 -1    0    0    0    0 -0.0000000000e+00 -0.0000000000e+00 -1.2000000000e+02 1.2000000000e+02 0.0000000000e+00 0.0000e+00 1.0000e+00
       23  2    1    2    0    0 -2.5448338839e+01 -1.2052939009e+01 -4.3200439871e+01 1.0478099470e+02 9.1213417638e+01 0.0000e+00 0.0000e+00
       25  2    1    2    0    0 +2.5448338839e+01 +1.2052939009e+01 +4.3200439871e+01 1.3521900530e+02 1.2500004040e+02 0.0000e+00 0.0000e+00
      -11  1    3    3    0    0 -1.7822528893e+01 -9.7678072799e+00 -7.2045662055e+01 7.4857397872e+01 0.0000000000e+00 0.0000e+00 1.0000e+00
       11  1    3    3    0    0 -7.6258099462e+00 -2.2851317290e+00 +2.8845222184e+01 2.9923596830e+01 0.0000000000e+00 0.0000e+00 -1.0000e+00
        5  1    4    4  501    0 +1.7529861410e+01 -9.7721847521e+00 +4.4091146137e+01 4.8671457791e+01 4.7000000000e+00 0.0000e+00 -1.0000e+00
       -5  1    4    4    0  501 +2.4662995218e+01 +3.7864682905e-01 +2.9613042062e+01 3.8825622554e+01 4.7000000000e+00 0.0000e+00 -1.0000e+00
        5  1    4    4  502    0 -1.9124249390e+01 +2.3708732607e+01 -2.7187794533e+01 4.1098748011e+01 4.7000000000e+00 0.0000e+00 1.0000e+00
       -5  1    4    4    0  502 +2.3797316001e+00 -2.2622556749e+00 -3.3159537951e+00 6.6231769415e+00 4.7000000000e+00 0.0000e+00 1.0000e+00
</event>
<event>
10      1 +4.6527485e-10 2.40000000e+02 7.81860800e-03 1.03012300e-01
      -11 -1    0    0    0    0 +0.0000000000e+00 +0.0000000000e+00 +1.2000000000e+02 1.2000000000e+02 0.0000000000e+00 0.0000e+00 1.0000e+00
       11 -1    0    0    0    0 -0.0000000000e+00 -0.0000000000e+00 -1.2000000000e+02 1.2000000000e+02 0.0000000000e+00 0.0000e+00 -1.0000e+00
       23  2    1    2    0    0 -3.9718439612e+00 +5.1786821918e+01 -6.7022222412e+00 1.0447121529e+02 9.0397259763e+01 0.0000e+00 0.0000e+00
       25  2    1    2    0    0 +3.9718439612e+00 -5.1786821918e+01 +6.7022222412e+00 1.3552878471e+02 1.2500192492e+02 0.0000e+00 0.0000e+00
      -11  1    3    3    0    0 +4.3233747140e+01 +2.4957355302e+01 -1.7906859025e+00 4.9952307568e+01 0.0000000000e+00 0.0000e+00 1.0000e+00
       11  1    3    3    0    0 -4.7205591101e+01 +2.6829466616e+01 -4.9115363387e+00 5.4518907723e+01 0.0000000000e+00 0.0000e+00 -1.0000e+00
        5  1    4    4  501    0 +1.2602457395e+01 -3.6218655856e+00 +3.5501158693e+00 1.4374740533e+01 4.7000000000e+00 0.0000e+00 1.0000e+00
       -5  1    4    4    0  502 -6.1531953835e+00 -2.0009235592e+01 +1.3783353714e+01 2.5501022764e+01 4.7000000000e+00 0.0000e+00 -1.0000e+00
        5  1    4    4  502    0 -3.6408223315e+01 -3.8132130753e+01 +1.0815908805e+01 5.4024920212e+01 4.7000000000e+00 0.0000e+00 -1.0000e+00
       -5  1    4    4    0  501 +3.3930805264e+01 +9.9764100124e+00 -2.1447156147e+01 4.1628101199e+01 4.7000000000e+00 0.0000e+00 1.0000e+00
</event>
<event>
10      1 +4.6527485e-10 2.40000000e+02 7.81860800e-03 1.03012300e-01
      -11 -1    0    0    0    0 +0.0000000000e+00 +0.0000000000e+00 +1.2000000000e+02 1.2000000000e+02 0.0000000000e+00 0.0000e+00 1.0000e+00
       11 -1    0    0    0    0 -0.0000000000e+00 -0.0000000000e+00 -1.2000000000e+02 1.2000000000e+02 0.0000000000e+00 0.0000e+00 -1.0000e+00
       23  2    1    2    0    0 +2.9340830913e+01 +7.9173994572e-01 -4.2459412268e+01 1.0476682490e+02 9.1168934948e+01 0.0000e+00 0.0000e+00
       25  2    1    2    0    0 -2.9340830913e+01 -7.9173994572e-01 +4.2459412268e+01 1.3523317510e+02 1.2499479487e+02 0.0000e+00 0.0000e+00
      -13  1    3    3    0    0 -2.5486836974e+01 +8.3469050581e+00 +9.8910391270e+00 2.8584652140e+01 0.0000000000e+00 0.0000e+00 1.0000e+00
       13  1    3    3    0    0 +5.4827667887e+01 -7.5551651123e+00 -5.2350451395e+01 7.6182172764e+01 0.0000000000e+00 0.0000e+00 -1.0000e+00
        5  1    4    4  501    0 +1.5697363464e+01 +2.1789754811e+01 -1.9692884219e+01 3.3631834968e+01 4.7000000000e+00 0.0000e+00 -1.0000e+00
       -5  1    4    4    0  502 -1.0352688926e+01 +4.5172575207e+00 +1.4249028801e+01 1.8780537939e+01 4.7000000000e+00 0.0000e+00 1.0000e+00
        5  1    4    4  502    0 -3.5067099303e+01 -2.5394961181e+01 +5.7417863149e+01 7.2065987231e+01 4.7000000000e+00 0.0000e+00 1.0000e+00
       -5  1    4    4    0  501 +3.8159385181e-01 -1.7037910961e+00 -9.5145954625e+00 1.0754814958e+01 4.7000000000e+00 0.0000e+00 -1.0000e+00
</event>
<event>
10      1 +4.6527485e-10 2.40000000e+02 7.81860800e-03 1.03012300e-01
      -11 -1    0    0    0    0 +0.0000000000e+00 +0.0000000000e+00 +1.2000000000e+02 1.2000000000e+02 0.0000000000e+00 0.0000e+00 -1.0000e+00
       11 -1    0    0    0    0 -0.0000000000e+00 -0.0000000000e+00 -1.2000000000e+02 1.2000000000e+02 0.0000000000e+00 0.0000e+00 1.0000e+00
       23  2    1    2    0    0 -2.4948056547e+01 -2.5080622773e+01 -3.7988368703e+01 1.0465025333e+02 9.0868675582e+01 0.0000e+00 0.0000e+00
       25  2    1    2    0    0 +2.4948056547e+01 +2.5080622773e+01 +3.7988368703e+01 1.3534974667e+02 1.2499997841e+02 0.0000e+00 0.0000e+00
      -13  1    3    3    0    0 -4.9616735845e+01 +5.1634211737e+00 -4.2272699318e+01 6.5387020897e+01 0.0000000000e+00 0.0000e+00 1.0000e+00
       13  1    3    3    0    0 +2.4668679298e+01 -3.0244043946e+01 +4.2843306157e+00 3.9263232437e+01 0.0000000000e+00 0.0000e+00 -1.0000e+00
        5  1    4    4  501    0 -1.4000703166e+00 +5.6579276747e-01 -2.8670828751e+01 2.9092726576e+01 4.7000000000e+00 0.0000e+00 1.0000e+00
       -5  1    4    4    0  501 -9.6238919452e+00 +7.3422517596e+00 -7.2912443239e+00 1.4892286623e+01 4.7000000000e+00 0.0000e+00 1.0000e+00
        5  1    4    4  502    0 +2.6370009855e+01 +4.4878057113e+00 +1.6984433972e+01 3.2032465050e+01 4.7000000000e+00 0.0000e+00 1.0000e+00
       -5  1    4    4    0  502 +9.6020089540e+00 +1.2684772534e+01 +5.6966007805e+01 5.9332268417e+01 4.7000000000e+00 0.0000e+00 1.0000e+00
</event>
<event>
10      1 +4.6527485e-10 2.40000000e+02 7.81860800e-03 1.03012300e-01
      -11 -1    0    0    0    0 +0.0000000000e+00 +0.0000000000e+00 +1.2000000000e+02 1.2000000000e+02 0.0000000000e+00 0.0000e+00 1.0000e+00
       11 -1    0    0    0    0 -0.0000000000e+00 -0.0000000000e+00 -1.2000000000e+02 1.2000000000e+02 0.0000000000e+00 0.0000e+00 -1.0000e+00
       23  2    1    2    0    0 +2.6181940122e+01 -3.6387557008e+01 +2.6519885536e+01 1.0458652519e+02 9.0694479591e+01 0.0000e+00 0.0000e+00
       25  2    1    2    0    0 -2.6181940122e+01 +3.6387557008e+01 -2.6519885536e+01 1.3541347481e+02 1.2499582608e+02 0.0000e+00 0.0000e+00
      -13  1    3    3    0    0 +2.5711375211e+01 -5.6463382558e+01 +4.5513332632e+01 7.6945772024e+01 0.0000000000e+00 0.0000e+00 1.0000e+00
       13  1    3    3    0    0 +4.7056491122e-01 +2.0075825550e+01 -1.8993447096e+01 2.7640753163e+01 0.0000000000e+00 0.0000e+00 -1.0000e+00
        5  1    4    4  501    0 -1.4762560317e+01 +6.3891753524e+01 -8.1129332871e+00 6.6241973415e+01 4.7000000000e+00 0.0000e+00 -1.0000e+00
       -5  1    4    4    0  501 -5.7443945852e-01 +1.5364522719e+01 +2.1159208091e+00 1.6216215956e+01 4.7000000000e+00 0.0000e+00 -1.0000e+00
        5  1    4    4  502    0 -1.3573104480e+01 -1.9050720084e+01 -1.4025018293e+01 2.7675806024e+01 4.7000000000e+00 0.0000e+00 1.0000e+00
       -5  1    4    4    0  502 +2.7281641336e+00 -2.3817999151e+01 -6.4978547645e+00 2.5279479418e+01 4.7000000000e+00 0.0000e+00 1.0000e+00
</event>
<event>
10      1 +4.6527485e-10 2.40000000e+02 7.81860800e-03 1.03012300e-01
      -11 -1    0    0    0    0 +0.0000000000e+00 +0.0000000000e+00 +1.2000000000e+02 1.2000000000e+02 0.0000000000e+00 0.0000e+00 1.0000e+00
       11 -1    0    0    0    0 -0.0000000000e+00 -0.0000000000e+00 -1.2000000000e+02 1.2000000000e+02 0.0000000000e+00 0.0000e+00 -1.0000e+00
       23  2    1    2    0    0 +8.8486200096e+00 +4.1892147952e+01 +3.1828629243e+01 1.0409208437e+02 8.9380368391e+01 0.0000e+00 0.0000e+00
       25  2    1    2    0    0 -8.8486200096e+00 -4.1892147952e+01 -3.1828629243e+01 1.3590791563e+02 1.2499859901e+02 0.0000e+00 0.0000e+00
      -13  1    3    3    0    0 +2.9203364860e+00 +6.4219240258e+01 -5.8586703097e-01 6.4288275950e+01 0.0000000000e+00 0.0000e+00 -1.0000e+00
       13  1    3    3    0    0 +5.9282835236e+00 -2.2327092306e+01 +3.2414496274e+01 3.9803808424e+01 0.0000000000e+00 0.0000e+00 1.0000e+00
        5  1    4    4  501    0 -8.6769790379e+00 -4.0363896981e+01 -2.9365546224e+01 5.0881818459e+01 4.7000000000e+00 0.0000e+00 -1.0000e+00
       -5  1    4    4    0  501 -1.0684877646e+01 -3.8012269556e+01 -1.0883377656e+01 4.1226655895e+01 4.7000000000e+00 0.0000e+00 -1.0000e+00
        5  1    4    4  502    0 +9.3847668052e+00 +8.2558865692e+00 -1.6195519564e+00 1.3451634086e+01 4.7000000000e+00 0.0000e+00 1.0000e+00
       -5  1    4    4    0  502 +1.1284698691e+00 +2.8228132016e+01 +1.0039846593e+01 3.0347807186e+01 4.7000000000e+00 0.0000e+00 1.0000e+00
</event>
<event>
10      1 +4.6527485e-10 2.40000000e+02 7.81860800e-03 1.03012300e-01
      -11 -1    0    0    0    0 +0.0000000000e+00 +0.0000000000e+00 +1.2000000000e+02 1.2000000000e+02 0.0000000000e+00 0.0000e+00 1.0000e+00
       11 -1    0    0    0    0 -0.0000000000e+00 -0.0000000000e+00 -1.2000000000e+02 1.2000000000e+02 0.0000000000e+00 0.0000e+00 -1.0000e+00
       23  2    1    2    0    0 -2.6865597806e+01 -3.7147423212e+01 -2.9206794549e+01 1.0369346745e+02 8.8304059632e+01 0.0000e+00 0.0000e+00
       25  2    1    2    0    0 +2.6865597806e+01 +3.7147423212e+01 +2.9206794549e+01 1.3630653255e+02 1.2499897028e+02 0.0000e+00 0.0000e+00
      -11  1    3    3    0    0 +8.5666590686e+00 -2.8511407961e+01 +2.4649604610e+01 3.8650886652e+01 0.0000000000e+00 0.0000e+00 1.0000e+00
       11  1    3    3    0    0 -3.5432256875e+01 -8.6360152506e+00 -5.3856399160e+01 6.5042580800e+01 0.0000000000e+00 0.0000e+00 -1.0000e+00
        5  1    4    4  501    0 +8.9829254080e+00 -3.5318964095e+00 +3.5493681690e+01 3.7081783682e+01 4.7000000000e+00 0.0000e+00 1.0000e+00
       -5  1    4    4    0  502 +1.5798939303e+01 +5.1264330486e+01 -1.7822003472e+01 5.6721705466e+01 4.7000000000e+00 0.0000e+00 1.0000e+00
        5  1    4    4  502    0 +1.2613325416e+01 +5.6188315398e-01 -9.1818707981e+00 1.6303632788e+01 4.7000000000e+00 0.0000e+00 1.0000e+00
       -5  1    4    4    0  501 -1.0529592321e+01 -1.1146894018e+01 +2.0716987129e+01 2.6199410612e+01 4.7000000000e+00 0.0000e+00 1.0000e+00
</event>
<event>
10      1 +4.6527485e-10 2.40000000e+02 7.81860800e-03 1.03012300e-01
      -11 -1    0    0    0    0 +0.0000000000e+00 +0.0000000000e+00 +1.2000000000e+02 1.2000000000e+02 0.0000000000e+00 0.0000e+00 1.0000e+00
       11 -1    0    0    0    0 -0.0000000000e+00 -0.0000000000e+00 -1.2000000000e+02 1.2000000000e+02 0.0000000000e+00 0.0000e+00 -1.0000e+00
       23  2    1    2    0    0 +3.8494854440e+01 -2.3735389799e+01 +2.4126082309e+01 1.0489983526e+02 9.1524231997e+01 0.0000e+00 0.0000e+00
       25  2    1    2    0    0 -3.8494854440e+01 +2.3735389799e+01 -2.4126082309e+01 1.3510016474e+02 1.2499905647e+02 0.0000e+00 0.0000e+00
      -11  1    3    3    0    0 -1.1554106617e+01 +2.5783196684e+01 +1.9524943508e+01 3.4343762606e+01 0.0000000000e+00 0.0000e+00 1.0000e+00
       11  1    3    3    0    0 +5.0048961057e+01 -4.9518586483e+01 +4.6011388007e+00 7.0556072654e+01 0.0000000000e+00 0.0000e+00 -1.0000e+00
        5  1    4    4  501    0 -1.3827256620e+01 +1.6894207562e+01 +1.3163200707e+01 2.5922328747e+01 4.7000000000e+00 0.0000e+00 1.0000e+00
       -5  1    4    4    0  501 -8.5805441639e+00 +3.1636372930e+01 +1.1875494535e+01 3.5179585000e+01 4.7000000000e+00 0.0000e+00 1.0000e+00
        5  1    4    4  502    0 +2.4918108544e+00 -3.0307569596e+01 -4.3472140250e+01 5.3260443803e+01 4.7000000000e+00 0.0000e+00 -1.0000e+00
       -5  1    4    4    0  502 -1.8578864510e+01 +5.5123789028e+00 -5.6926373005e+00 2.0737807191e+01 4.7000000000e+00 0.0000e+00 -1.0000e+00
</event>
<event>
10      1 +4.6527485e-10 2.40000000e+02 7.81860800e-03 1.03012300e-01
      -11 -1    0    0    0    0 +0.0000000000e+00 +0.0000000000e+00 +1.2000000000e+02 1.2000000000e+02 0.0000000000e+00 0.0000e+00 1.0000e+00
       11 -1    0    0    0    0 -0.0000000000e+00 -0.0000000000e+00 -1.2000000000e+02 1.2000000000e+02 0.0000000000e+00 0.0000e+00 -1.0000e+00
       23  2    1    2    0    0 -1.0649913976e+01 +2.7977415100e+01 -1.2114545942e+01 1.1089400582e+02 1.0608751991e+02 0.0000e+00 0.0000e+00
       25  2    1    2    0    0 +1.0649913976e+01 -2.7977415100e+01 +1.2114545942e+01 1.2910599418e+02 1.2500175633e+02 0.0000e+00 0.0000e+00
      -13  1    3    3    0    0 -9.1010417174e+00 -1.3387591147e+01 -5.1361396531e+01 5.3852108692e+01 0.0000000000e+00 0.0000e+00 -1.0000e+00
       13  1    3    3    0    0 -1.5488722586e+00 +4.1365006246e+01 +3.9246850588e+01 5.7041897129e+01 0.0000000000e+00 0.0000e+00 1.0000e+00
        5  1    4    4  501    0 -1.3404149376e+01 -1.0694213363e+01 +3.4342346425e+01 3.8672007679e+01 4.7000000000e+00 0.0000e+00 -1.0000e+00
       -5  1    4    4    0  501 +1.8903878573e+00 -1.0261185224e+01 +2.8444928757e+01 3.0660552188e+01 4.7000000000e+00 0.0000e+00 -1.0000e+00
        5  1    4    4  502    0 +7.1326807434e+00 +1.2967743233e+00 -3.4493548144e+00 9.3029461392e+00 4.7000000000e+00 0.0000e+00 -1.0000e+00
       -5  1    4    4    0  502 +1.5030994752e+01 -8.3187908357e+00 -4.7223374425e+01 5.0470488172e+01 4.7000000000e+00 0.0000e+00 -1.0000e+00
</event>
<event>
10      1 +4.6527485e-10 2.40000000e+02 7.81860800e-03 1.03012300e-01
      -11 -1    0    0    0    0 +0.0000000000e+00 +0.0000000000e+00 +1.2000000000e+02 1.2000000000e+02 0.0000000000e+00 0.0000e+00 -1.0000e+00
       11 -1    0    0    0    0 -0.0000000000e+00 -0.0000000000e+00 -1.2000000000e+02 1.2000000000e+02 0.0000000000e+00 0.0000e+00 1.0000e+00
       23  2    1    2    0    0 -4.5820901205e+01 +1.5646174357e+01 +2.4884092431e+01 1.0366018481e+02 8.8214840582e+01 0.0000e+00 0.0000e+00
       25  2    1    2    0    0 +4.5820901205e+01 -1.5646174357e+01 -2.4884092431e+01 1.3633981519e+02 1.2499987757e+02 0.0000e+00 0.0000e+00
      -11  1    3    3    0    0 -1.8209605646e+00 -2.6629730688e+01 -1.5139631000e+01 3.0686591220e+01 0.0000000000e+00 0.0000e+00 1.0000e+00
       11  1    3    3    0    0 -4.3999940640e+01 +4.2275905045e+01 +4.0023723431e+01 7.2973593587e+01 0.0000000000e+00 0.0000e+00 -1.0000e+00
        5  1    4    4  501    0 -9.0845196342e+00 -1.0618688541e+01 -4.7237301754e+01 4.9484722090e+01 4.7000000000e+00 0.0000e+00 1.0000e+00
       -5  1    4    4    0  501 +4.4439809370e+01 -5.8745819151e+00 +4.2558409470e+01 6.1989640958e+01 4.7000000000e+00 0.0000e+00 1.0000e+00
        5  1    4    4  502    0 +4.9171718439e+00 +1.0211667038e+00 -7.1540648805e+00 9.9243138148e+00 4.7000000000e+00 0.0000e+00 1.0000e+00
       -5  1    4    4    0  502 +5.5484396252e+00 -1.7407060454e-01 -1.3051135266e+01 1.4941138330e+01 4.7000000000e+00 0.0000e+00 1.0000e+00
</event>
<event>
10      1 +4.6527485e-10 2.40000000e+02 7.81860800e-03 1.03012300e-01
      -11 -1    0    0    0    0 +0.0000000000e+00 +0.0000000000e+00 +1.2000000000e+02 1.2000000000e+02 0.0000000000e+00 0.0000e+00 -1.0000e+00
       11 -1    0    0    0    0 -0.0000000000e+00 -0.0000000000e+00 -1.2000000000e+02 1.2000000000e+02 0.0000000000e+00 0.0000e+00 1.0000e+00
       23  2    1    2    0    0 +2.6139386219e+01 -3.0431750764e+01 +3.3657070543e+01 1.0447922759e+02 9.0408802854e+01 0.0000e+00 0.0000e+00
       25  2    1    2    0    0 -2.6139386219e+01 +3.0431750764e+01 -3.3657070543e+01 1.3552077241e+02 1.2499488946e+02 0.0000e+00 0.0000e+00
      -11  1    3    3    0    0 -1.2483698909e+01 +2.6562554717e+01 +4.4225275044e+00 2.9681152287e+01 0.0000000000e+00 0.0000e+00 1.0000e+00
       11  1    3    3    0    0 +3.8623085128e+01 -5.6994305482e+01 +2.9234543038e+01 7.4798075302e+01 0.0000000000e+00 0.0000e+00 -1.0000e+00
        5  1    4    4  501    0 +6.5305675067e+00 +4.0343478370e+01 -3.1832874729e+01 5.2016021306e+01 4.7000000000e+00 0.0000e+00 1.0000e+00
       -5  1    4    4    0  502 -2.1659427888e+01 -2.2816622778e+01 +2.4413970992e+01 4.0098142987e+01 4.7000000000e+00 0.0000e+00 -1.0000e+00
        5  1    4    4  502    0 -1.3247630402e+01 +1.1328641314e+00 +8.7767175400e-02 1.4102510255e+01 4.7000000000e+00 0.0000e+00 1.0000e+00
       -5  1    4    4    0  501 +2.2371045639e+00 +1.1772031040e+01 -2.6325933980e+01 2.9304097863e+01 4.7000000000e+00 0.0000e+00 1.0000e+00
</event>
<event>
10      1 +4.6527485e-10 2.40000000e+02 7.81860800e-03 1.03012300e-01
      -11 -1    0    0    0    0 +0.0000000000e+00 +0.0000000000e+00 +1.2000000000e+02 1.2000000000e+02 0.0000000000e+00 0.0000e+00 -1.0000e+00
       11 -1    0    0    0    0 -0.0000000000e+00 -0.0000000000e+00 -1.2000000000e+02 1.2000000000e+02 0.0000000000e+00 0.0000e+00 1.0000e+00
       23  2    1    2    0    0 +4.6749605359e+01 -2.0257186386e+01 -1.7850180960e+00 1.0500248009e+02 9.1795726122e+01 0.0000e+00 0.0000e+00
       25  2    1    2    0    0 -4.6749605359e+01 +2.0257186386e+01 +1.7850180960e+00 1.3499751991e+02 1.2500105956e+02 0.0000e+00 0.0000e+00
      -11  1    3    3    0    0 +2.5232392013e+01 -3.4280702276e+01 -4.0360888356e+01 5.8658686178e+01 0.0000000000e+00 0.0000e+00 1.0000e+00
       11  1    3    3    0    0 +2.1517213345e+01 +1.4023515889e+01 +3.8575870260e+01 4.6343793914e+01 0.0000000000e+00 0.0000e+00 -1.0000e+00
        5  1    4    4  501    0 -1.4994084322e+01 +8.2587882632e+00 -1.6360183356e+00 1.7826853458e+01 4.7000000000e+00 0.0000e+00 1.0000e+00
       -5  1    4    4    0  501 -3.9423084270e+01 +1.8263822740e+01 -4.4743803795e+01 6.2544742165e+01 4.7000000000e+00 0.0000e+00 1.0000e+00
        5  1    4    4  502    0 +4.5777290192e+00 -8.2629946246e+00 +6.1980092031e+00 1.2236747984e+01 4.7000000000e+00 0.0000e+00 1.0000e+00
       -5  1    4    4    0  502 +3.0898342142e+00 +1.9975700078e+00 +4.1966831023e+01 4.2389176302e+01 4.7000000000e+00 0.0000e+00 1.0000e+00
</event>
<event>
10      1 +4.6527485e-10 2.40000000e+02 7.81860800e-03 1.03012300e-01
      -11 -1    0    0    0    0 +0.0000000000e+00 +0.0000000000e+00 +1.2000000000e+02 1.2000000000e+02 0.0000000000e+00 0.0000e+00 -1.0000e+00
       11 -1    0    0    0    0 -0.0000000000e+00 -0.0000000000e+00 -1.2000000000e+02 1.2000000000e+02 0.0000000000e+00 0.0000e+00 1.0000e+00
       23  2    1    2    0    0 -8.3965102822e+00 +4.3866708954e+01 +2.6459415234e+01 1.0464860158e+02 9.0864952638e+01 0.0000e+00 0.0000e+00
       25  2    1    2    0    0 +8.3965102822e+00 -4.3866708954e+01 -2.6459415234e+01 1.3535139842e+02 1.2500044345e+02 0.0000e+00 0.0000e+00
      -13  1    3    3    0    0 +1.0028609559e+01 +2.4083987679e+01 +5.7706715931e+01 6.3329902382e+01 0.0000000000e+00 0.0000e+00 -1.0000e+00
       13  1    3    3    0    0 -1.8425119841e+01 +1.9782721275e+01 -3.1247300697e+01 4.1318699194e+01 0.0000000000e+00 0.0000e+00 1.0000e+00
        5  1    4    4  501    0 -6.9810018760e+00 -2.4911552979e+01 -5.6109095705e-01 2.6300659347e+01 4.7000000000e+00 0.0000e+00 1.0000e+00
       -5  1    4    4    0  501 +1.1650881372e+01 -5.0738550689e+01 +8.7461742222e+00 5.2997444526e+01 4.7000000000e+00 0.0000e+00 1.0000e+00
        5  1    4    4  502    0 -3.6879561639e+00 +3.4239287140e+01 -2.5228357370e+01 4.2947524028e+01 4.7000000000e+00 0.0000e+00 -1.0000e+00
       -5  1    4    4    0  502 +7.4145869505e+00 -2.4558924254e+00 -9.4161411287e+00 1.3105770523e+01 4.7000000000e+00 0.0000e+00 -1.0000e+00
</event>
<event>
10      1 +4.6527485e-10 2.40000000e+02 7.81860800e-03 1.03012300e-01
      -11 -1    0    0    0    0 +0.0000000000e+00 +0.0000000000e+00 +1.2000000000e+02 1.2000000000e+02 0.0000000000e+00 0.0000e+00 1.0000e+00
       11 -1    0    0    0    0 -0.0000000000e+00 -0.0000000000e+00 -1.2000000000e+02 1.2000000000e+02 0.0000000000e+00 0.0000e+00 -1.0000e+00
       23  2    1    2    0    0 +3.6859973017e+01 -3.3343318947e+01 -1.1375526226e+01 1.0500052126e+02 9.1789282262e+01 0.0000e+00 0.0000e+00
       25  2    1    2    0    0 -3.6859973017e+01 +3.3343318947e+01 +1.1375526226e+01 1.3499947874e+02 1.2500008854e+02 0.0000e+00 0.0000e+00
      -11  1    3    3    0    0 +1.9938759897e+01 -6.4956247809e+01 -2.1755522722e+00 6.7982360236e+01 0.0000000000e+00 0.0000e+00 1.0000e+00
       11  1    3    3    0    0 +1.6921213120e+01 +3.1612928861e+01 -9.1999739539e+00 3.7018161021e+01 0.0000000000e+00 0.0000e+00 -1.0000e+00
        5  1    4    4  501    0 -4.7169671109e+01 +6.3455279960e+00 +3.1564192875e+01 5.7302983080e+01 4.7000000000e+00 0.0000e+00 1.0000e+00
       -5  1    4    4    0  502 +4.5418556690e+00 -3.6488275284e+00 -9.9369950531e+00 1.2440910977e+01 4.7000000000e+00 0.0000e+00 -1.0000e+00
        5  1    4    4  502    0 +2.7674023868e+01 +2.8174423793e+01 -1.4473701481e+01 4.2322899094e+01 4.7000000000e+00 0.0000e+00 -1.0000e+00
       -5  1    4    4    0  501 -2.1906181445e+01 +2.4721946866e+00 +4.2220298856e+00 2.2932685591e+01 4.7000000000e+00 0.0000e+00 1.0000e+00
</event>
<event>
10      1 +4.6527485e-10 2.40000000e+02 7.81860800e-03 1.03012300e-01
      -11 -1    0    0    0    0 +0.0000000000e+00 +0.0000000000e+00 +1.2000000000e+02 1.2000000000e+02 0.0000000000e+00 0.0000e+00 1.0000e+00
       11 -1    0    0    0    0 -0.0000000000e+00 -0.0000000000e+00 -1.2000000000e+02 1.2000000000e+02 0.0000000000e+00 0.0000e+00 -1.0000e+00
       23  2    1    2    0    0 -1.4519300187e+01 +4.0048643846e+01 -2.1534417536e+01 1.0619716782e+02 9.4865185192e+01 0.0000e+00 0.0000e+00
       25  2    1    2    0    0 +1.4519300187e+01 -4.0048643846e+01 +2.1534417536e+01 1.3380283218e+02 1.2499905124e+02 0.0000e+00 0.0000e+00
      -11  1    3    3    0    0 -5.4581982827e+01 +3.0330734440e+01 -8.8616749413e+00 6.3068816254e+01 0.0000000000e+00 0.0000e+00 -1.0000e+00
       11  1    3    3    0    0 +4.0062682640e+01 +9.7179094065e+00 -1.2672742595e+01 4.3128351561e+01 0.0000000000e+00 0.0000e+00 1.0000e+00
        5  1    4    4  501    0 +1.2149541224e+01 -6.7819564528e+00 +8.3394798905e+00 1.6889144742e+01 4.7000000000e+00 0.0000e+00 1.0000e+00
       -5  1    4    4    0  502 -2.5162370709e+00 +2.4768762380e+00 +8.7894818922e+00 1.0574088936e+01 4.7000000000e+00 0.0000e+00 1.0000e+00
        5  1    4    4  502    0 -3.7387527779e+01 -4.8890739350e+01 +2.8628374544e+00 6.1793344835e+01 4.7000000000e+00 0.0000e+00 -1.0000e+00
       -5  1    4    4    0  501 +4.2273523813e+01 +1.3147175718e+01 +1.5426182990e+00 4.4546253671e+01 4.7000000000e+00 0.0000e+00 -1.0000e+00
</event>
<event>
10      1 +4.6527485e-10 2.40000000e+02 7.81860800e-03 1.03012300e-01
      -11 -1    0    0    0    0 +0.0000000000e+00 +0.0000000000e+00 +1.2000000000e+02 1.2000000000e+02 0.0000000000e+00 0.0000e+00 1.0000e+00
       11 -1    0    0    0    0 -0.0000000000e+00 -0.0000000000e+00 -1.2000000000e+02 1.2000000000e+02 0.0000000000e+00 0.0000e+00 -1.0000e+00
       23  2    1    2    0    0 -5.3909499347e+01 -7.5183496564e+00 +5.6630800086e+00 1.0356961356e+02 8.7930851675e+01 0.0000e+00 0.0000e+00
       25  2    1    2    0    0 +5.3909499347e+01 +7.5183496564e+00 -5.6630800086e+00 1.3643038644e+02 1.2497367790e+02 0.0000e+00 0.0000e+00
      -11  1    3    3    0    0 +4.3504833407e-01 +2.5835091504e+01 +2.5985971318e+01 3.6645762721e+01 0.0000000000e+00 0.0000e+00 1.0000e+00
       11  1    3    3    0    0 -5.4344547681e+01 -3.3353441160e+01 -2.0322891310e+01 6.6923850839e+01 0.0000000000e+00 0.0000e+00 -1.0000e+00
        5  1    4    4  501    0 -8.5851973906e+00 +8.0964379852e+00 +1.1085265541e+01 1.6859152837e+01 4.7000000000e+00 0.0000e+00 -1.0000e+00
       -5  1    4    4    0  502 +5.1569008635e+01 +1.5590053442e+00 -2.3232380359e+01 5.6776990466e+01 4.7000000000e+00 0.0000e+00 -1.0000e+00
        5  1    4    4  502    0 +3.6283126241e+01 -2.1642886644e+00 +3.0429565909e+00 3.6776337230e+01 4.7000000000e+00 0.0000e+00 -1.0000e+00
       -5  1    4    4    0  501 -2.5357438138e+01 +2.7194991426e-02 +3.4410782183e+00 2.6017905907e+01 4.7000000000e+00 0.0000e+00 -1.0000e+00
</event>
<event>
10      1 +4.6527485e-10 2.40000000e+02 7.81860800e-03 1.03012300e-01
      -11 -1    0    0    0    0 +0.0000000000e+00 +0.0000000000e+00 +1.2000000000e+02 1.2000000000e+02 0.0000000000e+00 0.0000e+00 -1.0000e+00
       11 -1    0    0    0    0 -0.0000000000e+00 -0.0000000000e+00 -1.2000000000e+02 1.2000000000e+02 0.0000000000e+00 0.0000e+00 1.0000e+00
       23  2    1    2    0    0 -1.4607172046e+01 -2.3185024830e+01 +4.6017732552e+01 1.0400703366e+02 8.9156696265e+01 0.0000e+00 0.0000e+00
       25  2    1    2    0    0 +1.4607172046e+01 +2.3185024830e+01 -4.6017732552e+01 1.3599296634e+02 1.2500216132e+02 0.0000e+00 0.0000e+00
      -13  1    3    3    0    0 -1.1798291075e+01 -3.3700447141e+01 +6.9494095928e+01 7.8130334561e+01 0.0000000000e+00 0.0000e+00 -1.0000e+00
       13  1    3    3    0    0 -2.8088809714e+00 +1.0515422311e+01 -2.3476363375e+01 2.5876699094e+01 0.0000000000e+00 0.0000e+00 1.0000e+00
        5  1    4    4  501    0 -3.6348180874e+01 -2.2735135135e+01 -1.7162241997e+01 4.6418845018e+01 4.7000000000e+00 0.0000e+00 1.0000e+00
       -5  1    4    4    0  501 -4.2563154222e+00 +1.7813123009e+00 -4.9047689680e+00 8.2119457570e+00 4.7000000000e+00 0.0000e+00 1.0000e+00
        5  1    4    4  502    0 +1.9244226401e+01 +1.8042663542e+01 +6.1407815360e+00 2.7489582669e+01 4.7000000000e+00 0.0000e+00 1.0000e+00
       -5  1    4    4    0  502 +3.5967441942e+01 +2.6096184122e+01 -3.0091503123e+01 5.3872592900e+01 4.7000000000e+00 0.0000e+00 1.0000e+00
</event>
<event>
10      1 +4.6527485e-10 2.40000000e+02 7.81860800e-03 1.03012300e-01
      -11 -1    0    0    0    0 +0.0000000000e+00 +0.0000000000e+00 +1.2000000000e+02 1.2000000000e+02 0.0000000000e+00 0.0000e+00 1.0000e+00
       11 -1    0    0    0    0 -0.0000000000e+00 -0.0000000000e+00 -1.2000000000e+02 1.2000000000e+02 0.0000000000e+00 0.0000e+00 -1.0000e+00
       23  2    1    2    0    0 -2.4203204871e+01 -3.3988729068e+01 +2.9377612166e+01 1.0499293011e+02 9.1757519835e+01 0.0000e+00 0.0000e+00
       25  2    1    2    0    0 +2.4203204871e+01 +3.3988729068e+01 -2.9377612166e+01 1.3500706989e+02 1.2499134368e+02 0.0000e+00 0.0000e+00
      -13  1    3    3    0    0 -5.9053259249e+00 -2.4195668965e+01 -3.1799179676e+01 4.0391720674e+01 0.0000000000e+00 0.0000e+00 -1.0000e+00
       13  1    3    3    0    0 -1.8297878946e+01 -9.7930601028e+00 +6.1176791842e+01 6.4601209433e+01 0.0000000000e+00 0.0000e+00 1.0000e+00
        5  1    4    4  501    0 +6.3573790010e+01 +1.3100035955e+01 -1.6600661402e+01 6.7163306033e+01 4.7000000000e+00 0.0000e+00 -1.0000e+00
       -5  1    4    4    0  502 -1.4377666422e+01 +9.2780702186e-01 -9.7225377881e+00 1.8005439697e+01 4.7000000000e+00 0.0000e+00 1.0000e+00
        5  1    4    4  502    0 -3.2896858356e+01 +9.6341418117e+00 +3.0290643675e+00 3.4731616851e+01 4.7000000000e+00 0.0000e+00 -1.0000e+00
       -5  1    4    4    0  501 +7.9039396394e+00 +1.0326744279e+01 -6.0834773432e+00 1.5106707312e+01 4.7000000000e+00 0.0000e+00 -1.0000e+00
</event>
<event>
10      1 +4.6527485e-10 2.40000000e+02 7.81860800e-03 1.03012300e-01
      -11 -1    0    0    0    0 +0.0000000000e+00 +0.0000000000e+00 +1.2000000000e+02 1.2000000000e+02 0.0000000000e+00 0.0000e+00 1.0000e+00
       11 -1    0    0    0    0 -0.0000000000e+00 -0.0000000000e+00 -1.2000000000e+02 1.2000000000e+02 0.0000000000e+00 0.0000e+00 -1.0000e+00
       23  2    1    2    0    0 +2.8501978683e+01 +4.2768667174e+01 +5.0565639847e+00 1.0475051647e+02 9.1134955860e+01 0.0000e+00 0.0000e+00
       25  2    1    2    0    0 -2.8501978683e+01 -4.2768667174e+01 -5.0565639847e+00 1.3524948353e+02 1.2500132910e+02 0.0000e+00 0.0000e+00
      -11  1    3    3    0    0 +5.7619505272e+01 +4.6363162957e+01 +1.1131994137e+01 7.4789515044e+01 0.0000000000e+00 0.0000e+00 1.0000e+00
       11  1    3    3    0    0 -2.9117526589e+01 -3.5944957824e+00 -6.0754301526e+00 2.9961001421e+01 0.0000000000e+00 0.0000e+00 -1.0000e+00
        5  1    4    4  501    0 -1.0716938219e+01 -6.9217564700e-01 -6.4860479646e-01 1.1740637125e+01 4.7000000000e+00 0.0000e+00 -1.0000e+00
       -5  1    4    4    0  501 -5.5116905774e+01 -5.1256112274e+01 -1.9073643523e+01 7.7787892533e+01 4.7000000000e+00 0.0000e+00 1.0000e+00
        5  1    4    4  502    0 +1.3026334718e+00 +2.0763784035e+00 -1.2119743129e+00 5.4375622269e+00 4.7000000000e+00 0.0000e+00 -1.0000e+00
       -5  1    4    4    0  502 +3.6029231839e+01 +7.1032423430e+00 +1.5877658648e+01 4.0283391650e+01 4.7000000000e+00 0.0000e+00 1.0000e+00
</event>
<event>
10      1 +4.6527485e-10 2.40000000e+02 7.81860800e-03 1.03012300e-01
      -11 -1    0    0    0    0 +0.0000000000e+00 +0.0000000000e+00 +1.2000000000e+02 1.2000000000e+02 0.0000000000e+00 0.0000e+00 1.0000e+00
       11 -1    0    0    0    0 -0.0000000000e+00 -0.0000000000e+00 -1.2000000000e+02 1.2000000000e+02 0.0000000000e+00 0.0000e+00 -1.0000e+00
       23  2    1    2    0    0 +2.3736404547e+01 +4.6735550440e+01 +1.1384432992e+01 1.0397725972e+02 8.9073209486e+01 0.0000e+00 0.0000e+00
       25  2    1    2    0    0 -2.3736404547e+01 -4.6735550440e+01 -1.1384432992e+01 1.3602274028e+02 1.2499980793e+02 0.0000e+00 0.0000e+00
      -11  1    3    3    0    0 +1.3890000989e+01 +7.1328070904e+01 +2.1247079670e+01 7.5710397046e+01 0.0000000000e+00 0.0000e+00 1.0000e+00
       11  1    3    3    0    0 +9.8464035579e+00 -2.4592520464e+01 -9.8626466775e+00 2.8266862671e+01 0.0000000000e+00 0.0000e+00 -1.0000e+00
        5  1    4    4  501    0 -2.0016546029e+00 -5.9640758117e+00 -1.9299958089e+00 8.0865137890e+00 4.7000000000e+00 0.0000e+00 1.0000e+00
       -5  1    4    4    0  501 -1.3989585049e+01 -2.1200843545e+00 -3.2319232675e+00 1.5255771875e+01 4.7000000000e+00 0.0000e+00 1.0000e+00
        5  1    4    4  502    0 -3.6488380481e+01 +4.9508101807e+00 -3.6559665591e+01 5.2101934510e+01 4.7000000000e+00 0.0000e+00 1.0000e+00
       -5  1    4    4    0  502 +2.8743215586e+01 -4.3602200454e+01 +3.0337151675e+01 6.0578520108e+01 4.7000000000e+00 0.0000e+00 1.0000e+00
</event>
<event>
10      1 +4.6527485e-10 2.40000000e+02 7.81860800e-03 1.03012300e-01
      -11 -1    0    0    0    0 +0.0000000000e+00 +0.0000000000e+00 +1.2000000000e+02 1.2000000000e+02 0.0000000000e+00 0.0000e+00 1.0000e+00
       11 -1    0    0    0    0 -0.0000000000e+00 -0.0000000000e+00 -1.2000000000e+02 1.2000000000e+02 0.0000000000e+00 0.0000e+00 -1.0000e+00
       23  2    1    2    0    0 +2.0833137379e+01 +3.6463089506e+01 -3.2335410278e+01 1.0422526715e+02 8.9742693549e+01 0.0000e+00 0.0000e+00
       25  2    1    2    0    0 -2.0833137379e+01 -3.6463089506e+01 +3.2335410278e+01 1.3577473285e+02 1.2500249123e+02 0.0000e+00 0.0000e+00
      -13  1    3    3    0    0 +1.8955156142e+01 +1.7673190393e+01 -6.3050925043e+01 6.8169338796e+01 0.0000000000e+00 0.0000e+00 -1.0000e+00
       13  1    3    3    0    0 +1.8779812370e+00 +1.8789899113e+01 +3.0715514765e+01 3.6055928355e+01 0.0000000000e+00 0.0000e+00 1.0000e+00
        5  1    4    4  501    0 +2.2109258297e+01 +8.8932623099e+00 +1.4498741440e+01 2.8288034932e+01 4.7000000000e+00 0.0000e+00 1.0000e+00
       -5  1    4    4    0  501 +1.0809603499e+01 +1.5546150017e+00 -1.1724551813e+01 1.6697888214e+01 4.7000000000e+00 0.0000e+00 1.0000e+00
        5  1    4    4  502    0 -3.3841162892e+01 -4.4710940773e+01 +3.8680046700e+01 6.8282710428e+01 4.7000000000e+00 0.0000e+00 1.0000e+00
       -5  1    4    4    0  502 -1.9910836283e+01 -2.2000260446e+00 -9.1188260490e+00 2.2506099276e+01 4.7000000000e+00 0.0000e+00 1.0000e+00
</event>
<event>
10      1 +4.6527485e-10 2.40000000e+02 7.81860800e-03 1.03012300e-01
      -11 -1    0    0    0    0 +0.0000000000e+00 +0.0000000000e+00 +1.2000000000e+02 1.2000000000e+02 0.0000000000e+00 0.0000e+00 1.0000e+00
       11 -1    0    0    0    0 -0.0000000000e+00 -0.0000000000e+00 -1.2000000000e+02 1.2000000000e+02 0.0000000000e+00 0.0000e+00 -1.0000e+00
       23  2    1    2    0    0 -8.6499283662e+00 -2.9107804279e+01 +3.8563551775e+01 1.0571769738e+02 9.3632251300e+01 0.0000e+00 0.0000e+00
       25  2    1    2    0    0 +8.6499283662e+00 +2.9107804279e+01 -3.8563551775e+01 1.3428230262e+02 1.2499001456e+02 0.0000e+00 0.0000e+00
      -11  1    3    3    0    0 -3.5318629268e+01 -1.7200521422e+01 -1.7109732856e+01 4.2848646058e+01 0.0000000000e+00 0.0000e+00 -1.0000e+00
       11  1    3    3    0    0 +2.6668700902e+01 -1.1907282857e+01 +5.5673284631e+01 6.2869051324e+01 0.0000000000e+00 0.0000e+00 1.0000e+00
        5  1    4    4  501    0 +7.9646360527e+00 +1.3211515700e+01 -4.5714710363e+01 4.8475811681e+01 4.7000000000e+00 0.0000e+00 -1.0000e+00
       -5  1    4    4    0  501 +1.9448611104e+01 +2.4648397600e+01 -2.6602921614e+01 4.1419770841e+01 4.7000000000e+00 0.0000e+00 -1.0000e+00
        5  1    4    4  502    0 +8.1956191642e-01 -4.8466920440e+00 +3.0342932315e+00 7.4470827120e+00 4.7000000000e+00 0.0000e+00 -1.0000e+00
       -5  1    4    4    0  502 -1.9582880707e+01 -3.9054169771e+00 +3.0719786971e+01 3.6939637384e+01 4.7000000000e+00 0.0000e+00 1.0000e+00
</event>
<event>
10      1 +4.6527485e-10 2.40000000e+02 7.81860800e-03 1.03012300e-01
      -11 -1    0    0    0    0 +0.0000000000e+00 +0.0000000000e+00 +1.2000000000e+02 1.2000000000e+02 0.0000000000e+00 0.0000e+00 1.0000e+00
       11 -1    0    0    0    0 -0.0000000000e+00 -0.0000000000e+00 -1.2000000000e+02 1.2000000000e+02 0.0000000000e+00 0.0000e+00 -1.0000e+00
       23  2    1    2    0    0 -3.6479821316e+01 -3.6293223801e+01 -6.1287958747e+00 1.0468386222e+02 9.0956986615e+01 0.0000e+00 0.0000e+00
       25  2    1    2    0    0 +3.6479821316e+01 +3.6293223801e+01 +6.1287958747e+00 1.3531613778e+02 1.2499967819e+02 0.0000e+00 0.0000e+00
      -13  1    3    3    0    0 +1.9963055458e+01 +3.0559018740e-01 -2.7605321605e+01 3.4068618251e+01 0.0000000000e+00 0.0000e+00 -1.0000e+00
       13  1    3    3    0    0 -5.6442876774e+01 -3.6598813988e+01 +2.1476525731e+01 7.0615243972e+01 0.0000000000e+00 0.0000e+00 1.0000e+00
        5  1    4    4  501    0 +1.5486860014e+01 -1.8603821051e+01 -1.6409963533e+01 2.9619620084e+01 4.7000000000e+00 0.0000e+00 -1.0000e+00
       -5  1    4    4    0  501 -9.1080741531e+00 -1.6300459594e+01 -6.3261513631e+00 2.0267515606e+01 4.7000000000e+00 0.0000e+00 -1.0000e+00
        5  1    4    4  502    0 +2.5737256372e+00 +2.1354240339e+01 +1.4639456835e+00 2.2064921960e+01 4.7000000000e+00 0.0000e+00 -1.0000e+00
       -5  1    4    4    0  502 +2.7527309818e+01 +4.9843264107e+01 +2.7400965087e+01 6.3364080127e+01 4.7000000000e+00 0.0000e+00 -1.0000e+00
</event>
<event>
10      1 +4.6527485e-10 2.40000000e+02 7.81860800e-03 1.03012300e-01
      -11 -1    0    0    0    0 +0.0000000000e+00 +0.0000000000e+00 +1.2000000000e+02 1.2000000000e+02 0.0000000000e+00 0.0000e+00 1.0000e+00
       11 -1    0    0    0    0 -0.0000000000e+00 -0.0000000000e+00 -1.2000000000e+02 1.2000000000e+02 0.0000000000e+00 0.0000e+00 -1.0000e+00
       23  2    1    2    0    0 -4.4041740022e+01 +3.1635219198e+01 +2.7283737425e+00 1.0371928070e+02 8.8372977811e+01 0.0000e+00 0.0000e+00
       25  2    1    2    0    0 +4.4041740022e+01 -3.1635219198e+01 -2.7283737425e+00 1.3628071930e+02 1.2499811388e+02 0.0000e+00 0.0000e+00
      -11  1    3    3    0    0 -3.8186394607e+01 +6.1569778999e+01 +7.5350123015e+00 7.2841024357e+01 0.0000000000e+00 0.0000e+00 1.0000e+00
       11  1    3    3    0    0 -5.8553454153e+00 -2.9934559800e+01 -4.8066385590e+00 3.0878256340e+01 0.0000000000e+00 0.0000e+00 -1.0000e+00
        5  1    4    4  501    0 +1.6592526231e+00 +1.1717837577e+01 +3.3488842775e+01 3.5828109455e+01 4.7000000000e+00 0.0000e+00 1.0000e+00
       -5  1    4    4    0  501 -8.6532411040e+00 +2.4697671632e+00 +9.6790163787e+00 1.4026820363e+01 4.7000000000e+00 0.0000e+00 1.0000e+00
        5  1    4    4  502    0 +5.1126288979e+01 -4.0731937406e+01 -4.4859210883e+01 7.9419310943e+01 4.7000000000e+00 0.0000e+00 1.0000e+00
       -5  1    4    4    0  502 -9.0560475855e-02 -5.0908865327e+00 -1.0370220128e+00 7.0064785409e+00 4.7000000000e+00 0.0000e+00 1.0000e+00
</event>
<event>
10      1 +4.6527485e-10 2.40000000e+02 7.81860800e-03 1.03012300e-01
      -11 -1    0    0    0    0 +0.0000000000e+00 +0.0000000000e+00 +1.2000000000e+02 1.2000000000e+02 0.0000000000e+00 0.0000e+00 1.0000e+00
       11 -1    0    0    0    0 -0.0000000000e+00 -0.0000000000e+00 -1.2000000000e+02 1.2000000000e+02 0.0000000000e+00 0.0000e+00 -1.0000e+00
       23  2    1    2    0    0 +3.6832820575e+01 +1.3923971417e+01 +2.1618383904e+01 1.0717165573e+02 9.7303009299e+01 0.0000e+00 0.0000e+00
       25  2    1    2    0    0 -3.6832820575e+01 -1.3923971417e+01 -2.1618383904e+01 1.3282834427e+02 1.2500192345e+02 0.0000e+00 0.0000e+00
      -11  1    3    3    0    0 +5.4081442765e+01 +2.0223643299e+01 -2.0463240076e+01 6.1257998615e+01 0.0000000000e+00 0.0000e+00 -1.0000e+00
       11  1    3    3    0    0 -1.7248622190e+01 -6.2996718819e+00 +4.2081623980e+01 4.5913657119e+01 0.0000000000e+00 0.0000e+00 1.0000e+00
        5  1    4    4  501    0 +3.8551821662e+01 +1.3451398933e+01 +3.3894922288e+00 4.1240292728e+01 4.7000000000e+00 0.0000e+00 1.0000e+00
       -5  1    4    4    0  502 -3.7899770247e+01 -6.8857517117e+00 -9.1488251522e+00 3.9869752484e+01 4.7000000000e+00 0.0000e+00 1.0000e+00
        5  1    4    4  502    0 -3.7369868286e+01 -2.2250032442e+01 -1.6289124231e+01 4.6679723303e+01 4.7000000000e+00 0.0000e+00 1.0000e+00
       -5  1    4    4    0  501 -1.1500370363e-01 +1.7604138034e+00 +4.3007325085e-01 5.0385757523e+00 4.7000000000e+00 0.0000e+00 1.0000e+00
</event>
<event>
10      1 +4.6527485e-10 2.40000000e+02 7.81860800e-03 1.03012300e-01
      -11 -1    0    0    0    0 +0.0000000000e+00 +0.0000000000e+00 +1.2000000000e+02 1.2000000000e+02 0.0000000000e+00 0.0000e+00 -1.0000e+00
       11 -1    0    0    0    0 -0.0000000000e+00 -0.0000000000e+00 -1.2000000000e+02 1.2000000000e+02 0.0000000000e+00 0.0000e+00 1.0000e+00
       23  2    1    2    0    0 -4.6912246226e+01 +1.6435154176e+01 +3.1921369746e+01 1.0174857952e+02 8.2842781517e+01 0.0000e+00 0.0000e+00
       25  2    1    2    0    0 +4.6912246226e+01 -1.6435154176e+01 -3.1921369746e+01 1.3825142048e+02 1.2499443299e+02 0.0000e+00 0.0000e+00
      -11  1    3    3    0    0 -5.1573253610e+01 -2.0174793650e+01 +3.3653252484e+01 6.4802501414e+01 0.0000000000e+00 0.0000e+00 -1.0000e+00
       11  1    3    3    0    0 +4.6610073848e+00 +3.6609947826e+01 -1.7318827374e+00 3.6946078107e+01 0.0000000000e+00 0.0000e+00 1.0000e+00
        5  1    4    4  501    0 +3.2574766982e+00 -3.3743304714e+01 +1.6706480211e+01 3.8084357005e+01 4.7000000000e+00 0.0000e+00 -1.0000e+00
       -5  1    4    4    0  502 +3.5652443562e+01 +3.5344835443e+01 -2.7583463956e+01 5.7474269097e+01 4.7000000000e+00 0.0000e+00 -1.0000e+00
        5  1    4    4  502    0 -1.0062431273e+00 +4.5511151712e+00 -1.6139031907e+01 1.7443724529e+01 4.7000000000e+00 0.0000e+00 -1.0000e+00
       -5  1    4    4    0  501 +9.0085690926e+00 -2.2587800076e+01 -4.9053540945e+00 2.5249069848e+01 4.7000000000e+00 0.0000e+00 -1.0000e+00
</event>
<event>
10      1 +4.6527485e-10 2.40000000e+02 7.81860800e-03 1.03012300e-01
      -11 -1    0    0    0    0 +0.0000000000e+00 +0.0000000000e+00 +1.2000000000e+02 1.2000000000e+02 0.0000000000e+00 0.0000e+00 1.0000e+00
       11 -1    0    0    0    0 -0.0000000000e+00 -0.0000000000e+00 -1.2000000000e+02 1.2000000000e+02 0.0000000000e+00 0.0000e+00 -1.0000e+00
       23  2    1    2    0    0 -4.9354357595e+01 +1.6465602888e+00 +1.9115290994e+01 1.0424659470e+02 8.9796405175e+01 0.0000e+00 0.0000e+00
       25  2    1    2    0    0 +4.9354357595e+01 -1.6465602888e+00 -1.9115290994e+01 1.3575340530e+02 1.2500011570e+02 0.0000e+00 0.0000e+00
      -13  1    3    3    0    0 +1.4973241012e+01 -2.2654348260e+01 +2.2692769153e+01 3.5388970221e+01 0.0000000000e+00 0.0000e+00 1.0000e+00
       13  1    3    3    0    0 -6.4327598608e+01 +2.4300908549e+01 -3.5774781585e+00 6.8857624479e+01 0.0000000000e+00 0.0000e+00 -1.0000e+00
        5  1    4    4  501    0 +6.6457381479e+00 +3.4519722252e+01 +1.0674872801e+01 3.7038088088e+01 4.7000000000e+00 0.0000e+00 1.0000e+00
       -5  1    4    4    0  502 +2.2597379817e+01 -2.6256731670e+01 +3.5196270219e-01 3.4960998417e+01 4.7000000000e+00 0.0000e+00 1.0000e+00
        5  1    4    4  502    0 +2.0271693611e+01 -2.9241628294e+01 -2.2939313978e+01 4.2594794434e+01 4.7000000000e+00 0.0000e+00 1.0000e+00
       -5  1    4    4    0  501 -1.6045398052e-01 +1.9332077422e+01 -7.2028125204e+00 2.1159524360e+01 4.7000000000e+00 0.0000e+00 1.0000e+00
</event>
<event>
10      1 +4.6527485e-10 2.40000000e+02 7.81860800e-03 1.03012300e-01
      -11 -1    0    0    0    0 +0.0000000000e+00 +0.0000000000e+00 +1.2000000000e+02 1.2000000000e+02 0.0000000000e+00 0.0000e+00 1.0000e+00
       11 -1    0    0    0    0 -0.0000000000e+00 -0.0000000000e+00 -1.2000000000e+02 1.2000000000e+02 0.0000000000e+00 0.0000e+00 -1.0000e+00
       23  2    1    2    0    0 +2.5941576960e+01 -3.8722673704e+00 +4.4975982440e+01 1.0458962217e+02 9.0709372168e+01 0.0000e+00 0.0000e+00
       25  2    1    2    0    0 -2.5941576960e+01 +3.8722673704e+00 -4.4975982440e+01 1.3541037783e+02 1.2500068623e+02 0.0000e+00 0.0000e+00
      -11  1    3    3    0    0 +1.4979963102e+01 +1.9935268668e+01 +6.6278734036e+01 7.0814439325e+01 0.0000000000e+00 0.0000e+00 1.0000e+00
       11  1    3    3    0    0 +1.0961613858e+01 -2.3807536038e+01 -2.1302751596e+01 3.3775182844e+01 0.0000000000e+00 0.0000e+00 -1.0000e+00
        5  1    4    4  501    0 -8.6560616907e+00 -2.2093151885e+01 +5.0805952462e+00 2.4717144096e+01 4.7000000000e+00 0.0000e+00 -1.0000e+00
       -5  1    4    4    0  502 -1.3509197603e+01 +3.4447550264e+01 -1.4524125214e+01 4.0027145193e+01 4.7000000000e+00 0.0000e+00 1.0000e+00
        5  1    4    4  502    0 +6.6472593511e+00 +2.4605520228e+01 -1.2616755581e+01 2.8825166156e+01 4.7000000000e+00 0.0000e+00 1.0000e+00
       -5  1    4    4    0  501 -1.0423577018e+01 -3.3087651236e+01 -2.2915696892e+01 4.1840922387e+01 4.7000000000e+00 0.0000e+00 -1.0000e+00
</event>
<event>
10      1 +4.6527485e-10 2.40000000e+02 7.81860800e-03 1.03012300e-01
      -11 -1    0    0    0    0 +0.0000000000e+00 +0.0000000000e+00 +1.2000000000e+02 1.2000000000e+02 0.0000000000e+00 0.0000e+00 1.0000e+00
       11 -1    0    0    0    0 -0.0000000000e+00 -0.0000000000e+00 -1.2000000000e+02 1.2000000000e+02 0.0000000000e+00 0.0000e+00 -1.0000e+00
       23  2    1    2    0    0 +3.1857558010e+01 +2.5902091584e+01 +3.0516286438e+01 1.0493652764e+02 9.1622097465e+01 0.0000e+00 0.0000e+00
       25  2    1    2    0    0 -3.1857558010e+01 -2.5902091584e+01 -3.0516286438e+01 1.3506347236e+02 1.2500030191e+02 0.0000e+00 0.0000e+00
      -11  1    3    3    0    0 +3.2093139471e+01 -3.0306535021e+01 +1.1766479265e+01 4.5682663017e+01 0.0000000000e+00 0.0000e+00 -1.0000e+00
       11  1    3    3    0    0 -2.3558146071e-01 +5.6208626604e+01 +1.8749807173e+01 5.9253864620e+01 0.0000000000e+00 0.0000e+00 1.0000e+00
        5  1    4    4  501    0 -1.9334669631e+01 +4.1783526536e+01 -1.8126896207e+01 4.9702785692e+01 4.7000000000e+00 0.0000e+00 -1.0000e+00
       -5  1    4    4    0  501 +5.4333567744e+00 +3.8739378849e+00 -2.1092376559e+00 8.4301627542e+00 4.7000000000e+00 0.0000e+00 -1.0000e+00
        5  1    4    4  502    0 -9.4822446996e+00 -2.0348814422e+01 -9.4434188715e+00 2.4804341816e+01 4.7000000000e+00 0.0000e+00 1.0000e+00
       -5  1    4    4    0  502 -8.4740004548e+00 -5.1210741582e+01 -8.3673370369e-01 5.2126182100e+01 4.7000000000e+00 0.0000e+00 1.0000e+00
</event>
<event>
10      1 +4.6527485e-10 2.40000000e+02 7.81860800e-03 1.03012300e-01
      -11 -1    0    0    0    0 +0.0000000000e+00 +0.0000000000e+00 +1.2000000000e+02 1.2000000000e+02 0.0000000000e+00 0.0000e+00 -1.0000e+00
       11 -1    0    0    0    0 -0.0000000000e+00 -0.0000000000e+00 -1.2000000000e+02 1.2000000000e+02 0.0000000000e+00 0.0000e+00 1.0000e+00
       23  2    1    2    0    0 +7.0364024510e+00 +3.2819345852e+01 -3.8852747762e+01 1.0486639880e+02 9.1437438543e+01 0.0000e+00 0.0000e+00
       25  2    1    2    0    0 -7.0364024510e+00 -3.2819345852e+01 +3.8852747762e+01 1.3513360120e+02 1.2499973497e+02 0.0000e+00 0.0000e+00
      -11  1    3    3    0    0 -9.3081765794e+00 -1.6176738629e+01 +1.9463280866e+01 2.6965687938e+01 0.0000000000e+00 0.0000e+00 -1.0000e+00
       11  1    3    3    0    0 +1.6344579030e+01 +4.8996084481e+01 -5.8316028628e+01 7.7900710863e+01 0.0000000000e+00 0.0000e+00 1.0000e+00
        5  1    4    4  501    0 -2.8887734443e+01 -1.4763604286e+01 +1.5038479609e+01 3.6065372336e+01 4.7000000000e+00 0.0000e+00 1.0000e+00
       -5  1    4    4    0  502 +4.5013470660e+01 +1.4426669943e+00 -7.4828142378e+00 4.5895275768e+01 4.7000000000e+00 0.0000e+00 1.0000e+00
        5  1    4    4  502    0 +2.6900527701e+00 +4.2494164455e+00 +1.8893234903e+00 7.1381697433e+00 4.7000000000e+00 0.0000e+00 1.0000e+00
       -5  1    4    4    0  501 -2.5852191438e+01 -2.3747825006e+01 +2.9407758901e+01 4.6034783352e+01 4.7000000000e+00 0.0000e+00 1.0000e+00
</event>
<event>
10      1 +4.6527485e-10 2.40000000e+02 7.81860800e-03 1.03012300e-01
      -11 -1    0    0    0    0 +0.0000000000e+00 +0.0000000000e+00 +1.2000000000e+02 1.2000000000e+02 0.0000000000e+00 0.0000e+00 -1.0000e+00
       11 -1    0    0    0    0 -0.0000000000e+00 -0.0000000000e+00 -1.2000000000e+02 1.2000000000e+02 0.0000000000e+00 0.0000e+00 1.0000e+00
       23  2    1    2    0    0 -4.2779551703e+00 -3.3330326878e+01 +3.7889182006e+01 1.0513083801e+02 9.2128667616e+01 0.0000e+00 0.0000e+00
       25  2    1    2    0    0 +4.2779551703e+00 +3.3330326878e+01 -3.7889182006e+01 1.3486916199e+02 1.2499955661e+02 0.0000e+00 0.0000e+00
      -11  1    3    3    0    0 -4.0232975548e+01 -1.3304224771e+01 +4.6681263033e+01 6.3046292806e+01 0.0000000000e+00 0.0000e+00 -1.0000e+00
       11  1    3    3    0    0 +3.5955020378e+01 -2.0026102107e+01 -8.7920810270e+00 4.2084545201e+01 0.0000000000e+00 0.0000e+00 1.0000e+00
        5  1    4    4  501    0 +2.2233251634e+01 +1.7723927215e+01 -5.3729634315e+01 6.0970637833e+01 4.7000000000e+00 0.0000e+00 1.0000e+00
       -5  1    4    4    0  502 -3.0423418076e+00 -5.5976712359e+00 +2.5052874695e+01 2.6274061304e+01 4.7000000000e+00 0.0000e+00 -1.0000e+00
        5  1    4    4  502    0 -1.6403635774e+01 +3.3520251993e+00 +1.0709926917e+01 2.0423218995e+01 4.7000000000e+00 0.0000e+00 -1.0000e+00
       -5  1    4    4    0  501 +1.4906811184e+00 +1.7852045700e+01 -1.9922349303e+01 2.7201243861e+01 4.7000000000e+00 0.0000e+00 1.0000e+00
</event>
<event>
10      1 +4.6527485e-10 2.40000000e+02 7.81860800e-03 1.03012300e-01
      -11 -1    0    0    0    0 +0.0000000000e+00 +0.0000000000e+00 +1.2000000000e+02 1.2000000000e+02 0.0000000000e+00 0.0000e+00 -1.0000e+00
       11 -1    0    0    0    0 -0.0000000000e+00 -0.0000000000e+00 -1.2000000000e+02 1.2000000000e+02 0.0000000000e+00 0.0000e+00 1.0000e+00
       23  2    1    2    0    0 +3.3765962860e+01 -3.3743318907e+01 +2.0317848944e+01 1.0466130300e+02 9.0897863234e+01 0.0000e+00 0.0000e+00
       25  2    1    2    0    0 -3.3765962860e+01 +3.3743318907e+01 -2.0317848944e+01 1.3533869700e+02 1.2499998441e+02 0.0000e+00 0.0000e+00
      -13  1    3    3    0    0 +2.3704192831e+01 -4.1338226190e+01 -2.7630509043e+01 5.5083416127e+01 0.0000000000e+00 0.0000e+00 1.0000e+00
       13  1    3    3    0    0 +1.0061770029e+01 +7.5949072829e+00 +4.7948357987e+01 4.9577886869e+01 0.0000000000e+00 0.0000e+00 -1.0000e+00
        5  1    4    4  501    0 -2.4713739177e+01 -3.5103535565e+01 +1.0985747479e+00 4.3200971977e+01 4.7000000000e+00 0.0000e+00 1.0000e+00
       -5  1    4    4    0  502 +9.9209519739e+00 +3.1109752747e+01 -1.5126847561e+01 3.6292609733e+01 4.7000000000e+00 0.0000e+00 -1.0000e+00
        5  1    4    4  502    0 -6.0139912089e+00 +4.0083126733e+01 -7.6660747164e-01 4.0810572478e+01 4.7000000000e+00 0.0000e+00 -1.0000e+00
       -5  1    4    4    0  501 -1.2959184447e+01 -2.3460250081e+00 -5.5229686591e+00 1.5034542816e+01 4.7000000000e+00 0.0000e+00 1.0000e+00
</event>
<event>
10      1 +4.6527485e-10 2.40000000e+02 7.81860800e-03 1.03012300e-01
      -11 -1    0    0    0    0 +0.0000000000e+00 +0.0000000000e+00 +1.2000000000e+02 1.2000000000e+02 0.0000000000e+00 0.0000e+00 -1.0000e+00
       11 -1    0    0    0    0 -0.0000000000e+00 -0.0000000000e+00 -1.2000000000e+02 1.2000000000e+02 0.0000000000e+00 0.0000e+00 1.0000e+00
       23  2    1    2    0    0 -3.9927293687e+01 +1.7410200898e+01 +2.3564166442e+01 1.0553279822e+02 9.3191188875e+01 0.0000e+00 0.0000e+00
       25  2    1    2    0    0 +3.9927293687e+01 -1.7410200898e+01 -2.3564166442e+01 1.3446720178e+02 1.2501541720e+02 0.0000e+00 0.0000e+00
      -13  1    3    3    0    0 +7.6586717931e+00 +3.0468981612e+01 -2.2011701826e+01 3.8360515004e+01 0.0000000000e+00 0.0000e+00 1.0000e+00
       13  1    3    3    0    0 -4.7585965480e+01 -1.3058780714e+01 +4.5575868268e+01 6.7172283218e+01 0.0000000000e+00 0.0000e+00 -1.0000e+00
        5  1    4    4  501    0 -1.4996441989e+00 -4.8749349008e+01 -3.5904806105e+01 6.0745313094e+01 4.7000000000e+00 0.0000e+00 1.0000e+00
       -5  1    4    4    0  501 -4.3156441998e+00 -7.6446308220e+00 -1.2712607456e+00 1.0038489386e+01 4.7000000000e+00 0.0000e+00 1.0000e+00
        5  1    4    4  502    0 +1.9745254872e+01 +1.4247415650e+01 -5.8918335677e-01 2.4805263145e+01 4.7000000000e+00 0.0000e+00 1.0000e+00
       -5  1    4    4    0  502 +2.5997327213e+01 +2.4736363282e+01 +1.4201083765e+01 3.8878136153e+01 4.7000000000e+00 0.0000e+00 1.0000e+00
</event>
<event>
10      1 +4.6527485e-10 2.40000000e+02 7.81860800e-03 1.03012300e-01
      -11 -1    0    0    0    0 +0.0000000000e+00 +0.0000000000e+00 +1.2000000000e+02 1.2000000000e+02 0.0000000000e+00 0.0000e+00 1.0000e+00
       11 -1    0    0    0    0 -0.0000000000e+00 -0.0000000000e+00 -1.2000000000e+02 1.2000000000e+02 0.0000000000e+00 0.0000e+00 -1.0000e+00
       23  2    1    2    0    0 +3.1210326775e+01 +2.7536224003e+01 +2.9671657250e+01 1.0495182620e+02 9.1663244812e+01 0.0000e+00 0.0000e+00
       25  2    1    2    0    0 -3.1210326775e+01 -2.7536224003e+01 -2.9671657250e+01 1.3504817380e+02 1.2500109549e+02 0.0000e+00 0.0000e+00
      -11  1    3    3    0    0 +2.9919089349e+01 +3.3917040528e+01 +5.9321342496e+01 7.4595839168e+01 0.0000000000e+00 0.0000e+00 1.0000e+00
       11  1    3    3    0    0 +1.2912374256e+00 -6.3808165251e+00 -2.9649685246e+01 3.0355987034e+01 0.0000000000e+00 0.0000e+00 -1.0000e+00
        5  1    4    4  501    0 +8.1050595645e+00 +1.7517761556e+00 -8.6836755624e+00 1.2894065748e+01 4.7000000000e+00 0.0000e+00 1.0000e+00
       -5  1    4    4    0  501 +1.9677151808e+01 +2.4862770675e+01 -1.2534618389e+01 3.4417355027e+01 4.7000000000e+00 0.0000e+00 1.0000e+00
        5  1    4    4  502    0 -4.0764275456e+01 -1.5281225514e+01 -3.1395321378e-01 4.3788475347e+01 4.7000000000e+00 0.0000e+00 1.0000e+00
       -5  1    4    4    0  502 -1.8228262692e+01 -3.8869545320e+01 -8.1394100843e+00 4.3948277676e+01 4.7000000000e+00 0.0000e+00 1.0000e+00
</event>
<event>
10      1 +4.6527485e-10 2.40000000e+02 7.81860800e-03 1.03012300e-01
      -11 -1    0    0    0    0 +0.0000000000e+00 +0.0000000000e+00 +1.2000000000e+02 1.2000000000e+02 0.0000000000e+00 0.0000e+00 1.0000e+00
       11 -1    0    0    0    0 -0.0000000000e+00 -0.0000000000e+00 -1.2000000000e+02 1.2000000000e+02 0.0000000000e+00 0.0000e+00 -1.0000e+00
       23  2    1    2    0    0 +1.6684746326e+01 +3.3612899214e+01 -2.9610009564e+01 1.0616559335e+02 9.4795426001e+01 0.0000e+00 0.0000e+00
       25  2    1    2    0    0 -1.6684746326e+01 -3.3612899214e+01 +2.9610009564e+01 1.3383440665e+02 1.2500675176e+02 0.0000e+00 0.0000e+00
      -13  1    3    3    0    0 -4.7776826014e+00 +1.5737458889e+01 +3.3406898925e+01 3.7235933708e+01 0.0000000000e+00 0.0000e+00 1.0000e+00
       13  1    3    3    0    0 +2.1462428928e+01 +1.7875440325e+01 -6.3016908489e+01 6.8929659638e+01 0.0000000000e+00 0.0000e+00 -1.0000e+00
        5  1    4    4  501    0 +4.1744782272e+00 -5.4569498051e+00 -3.6520736264e-01 8.3323433716e+00 4.7000000000e+00 0.0000e+00 -1.0000e+00
       -5  1    4    4    0  502 +1.9752650074e+01 +1.9370576769e+01 +2.0037915367e+01 3.4481799280e+01 4.7000000000e+00 0.0000e+00 -1.0000e+00
        5  1    4    4  502    0 -3.0607751388e+01 +8.2680247827e+00 -4.4271917489e+00 3.2355597748e+01 4.7000000000e+00 0.0000e+00 -1.0000e+00
       -5  1    4    4    0  501 -1.0004123239e+01 -5.5794550961e+01 +1.4364493309e+01 5.8664666254e+01 4.7000000000e+00 0.0000e+00 -1.0000e+00
</event>
<event>
10      1 +4.6527485e-10 2.40000000e+02 7.81860800e-03 1.03012300e-01
      -11 -1    0    0    0    0 +0.0000000000e+00 +0.0000000000e+00 +1.2000000000e+02 1.2000000000e+02 0.0000000000e+00 0.0000e+00 -1.0000e+00
       11 -1    0    0    0    0 -0.0000000000e+00 -0.0000000000e+00 -1.2000000000e+02 1.2000000000e+02 0.0000000000e+00 0.0000e+00 1.0000e+00
       23  2    1    2    0    0 +1.8410923909e+01 -4.3858884181e+01 +2.5206725854e+01 1.0390155531e+02 8.8868387668e+01 0.0000e+00 0.0000e+00
       25  2    1    2    0    0 -1.8410923909e+01 +4.3858884181e+01 -2.5206725854e+01 1.3609844469e+02 1.2499937511e+02 0.0000e+00 0.0000e+00
      -11  1    3    3    0    0 +1.5590081181e+01 -3.2071862930e+01 -3.0479827891e+01 4.6911351838e+01 0.0000000000e+00 0.0000e+00 1.0000e+00
       11  1    3    3    0    0 +2.8208427284e+00 -1.1787021251e+01 +5.5686553745e+01 5.6990203471e+01 0.0000000000e+00 0.0000e+00 -1.0000e+00
        5  1    4    4  501    0 -4.9675352138e+00 +4.1627620133e+00 +6.2196366113e+00 1.0137991579e+01 4.7000000000e+00 0.0000e+00 1.0000e+00
       -5  1    4    4    0  501 -1.0207310460e+01 +2.2134062476e+01 +7.7602263661e+00 2.6008018413e+01 4.7000000000e+00 0.0000e+00 -1.0000e+00
        5  1    4    4  502    0 +4.9974116231e+00 +2.5679969659e+01 +2.3837917294e+01 3.5703939075e+01 4.7000000000e+00 0.0000e+00 -1.0000e+00
       -5  1    4    4    0  502 -8.2334898589e+00 -8.1179099668e+00 -6.3024506125e+01 6.4248495623e+01 4.7000000000e+00 0.0000e+00 -1.0000e+00
</event>
<event>
10      1 +4.6527485e-10 2.40000000e+02 7.81860800e-03 1.03012300e-01
      -11 -1    0    0    0    0 +0.0000000000e+00 +0.0000000000e+00 +1.2000000000e+02 1.2000000000e+02 0.0000000000e+00 0.0000e+00 1.0000e+00
       11 -1    0    0    0    0 -0.0000000000e+00 -0.0000000000e+00 -1.2000000000e+02 1.2000000000e+02 0.0000000000e+00 0.0000e+00 -1.0000e+00
       23  2    1    2    0    0 +7.7560254140e+00 -2.6288497588e+01 +4.4394034647e+01 1.0455280299e+02 9.0604730916e+01 0.0000e+00 0.0000e+00
       25  2    1    2    0    0 -7.7560254140e+00 +2.6288497588e+01 -4.4394034647e+01 1.3544719701e+02 1.2499548724e+02 0.0000e+00 0.0000e+00
      -13  1    3    3    0    0 -2.4087456222e+01 +3.8352973720e+00 -1.6554577912e+01 2.9478281887e+01 0.0000000000e+00 0.0000e+00 -1.0000e+00
       13  1    3    3    0    0 +3.1843481636e+01 -3.0123794960e+01 +6.0948612558e+01 7.5074521099e+01 0.0000000000e+00 0.0000e+00 1.0000e+00
        5  1    4    4  501    0 -2.8160788713e+01 -1.0592634769e+01 -1.7904591682e+00 3.0504584513e+01 4.7000000000e+00 0.0000e+00 -1.0000e+00
       -5  1    4    4    0  501 -2.1144090679e+01 -1.2710178655e+01 -2.3134347071e+01 3.4145412964e+01 4.7000000000e+00 0.0000e+00 -1.0000e+00
        5  1    4    4  502    0 +7.7211886339e+00 +1.6691252525e+00 -1.9315189284e+00 9.3927364703e+00 4.7000000000e+00 0.0000e+00 1.0000e+00
       -5  1    4    4    0  502 +3.3827665345e+01 +4.7922185760e+01 -1.7537709480e+01 6.1404463066e+01 4.7000000000e+00 0.0000e+00 -1.0000e+00
</event>
<event>
10      1 +4.6527485e-10 2.40000000e+02 7.81860800e-03 1.03012300e-01
      -11 -1    0    0    0    0 +0.0000000000e+00 +0.0000000000e+00 +1.2000000000e+02 1.2000000000e+02 0.0000000000e+00 0.0000e+00 1.0000e+00
       11 -1    0    0    0    0 -0.0000000000e+00 -0.0000000000e+00 -1.2000000000e+02 1.2000000000e+02 0.0000000000e+00 0.0000e+00 -1.0000e+00
       23  2    1    2    0    0 -1.1405295697e+01 -1.4339843824e+01 -4.5710918274e+01 1.0564905237e+02 9.3469365711e+01 0.0000e+00 0.0000e+00
       25  2    1    2    0    0 +1.1405295697e+01 +1.4339843824e+01 +4.5710918274e+01 1.3435094763e+02 1.2499990876e+02 0.0000e+00 0.0000e+00
      -13  1    3    3    0    0 -1.6498938576e+01 -2.4220420065e+01 -7.1659053887e+01 7.7420047315e+01 0.0000000000e+00 0.0000e+00 -1.0000e+00
       13  1    3    3    0    0 +5.0936428789e+00 +9.8805762403e+00 +2.5948135613e+01 2.8229005055e+01 0.0000000000e+00 0.0000e+00 1.0000e+00
        5  1    4    4  501    0 +3.1082246234e+01 +8.7430576464e+00 +5.7481332450e+00 3.3131225812e+01 4.7000000000e+00 0.0000e+00 1.0000e+00
       -5  1    4    4    0  502 -1.5227123682e+01 -6.7333452397e+00 +3.0303349725e+01 3.4893928388e+01 4.7000000000e+00 0.0000e+00 -1.0000e+00
        5  1    4    4  502    0 -2.7287330110e+01 -1.2854932773e+01 +9.6108695158e+00 3.2004788611e+01 4.7000000000e+00 0.0000e+00 -1.0000e+00
       -5  1    4    4    0  501 +2.2837503256e+01 +2.5185064191e+01 +4.8565787582e-02 3.4321004820e+01 4.7000000000e+00 0.0000e+00 1.0000e+00
</event>
<event>
10      1 +4.6527485e-10 2.40000000e+02 7.81860800e-03 1.03012300e-01
      -11 -1    0    0    0    0 +0.0000000000e+00 +0.0000000000e+00 +1.2000000000e+02 1.2000000000e+02 0.0000000000e+00 0.0000e+00 1.0000e+00
       11 -1    0    0    0    0 -0.0000000000e+00 -0.0000000000e+00 -1.2000000000e+02 1.2000000000e+02 0.0000000000e+00 0.0000e+00 -1.0000e+00
       23  2    1    2    0    0 -1.4295174397e+01 +3.5338590362e+01 -3.3935413380e+01 1.0497809271e+02 9.1736686706e+01 0.0000e+00 0.0000e+00
       25  2    1    2    0    0 +1.4295174397e+01 -3.5338590362e+01 +3.3935413380e+01 1.3502190729e+02 1.2500454067e+02 0.0000e+00 0.0000e+00
      -11  1    3    3    0    0 +1.8381196034e+00 -3.0203854959e+01 -1.9361531669e+01 3.5923814478e+01 0.0000000000e+00 0.0000e+00 -1.0000e+00
       11  1    3    3    0    0 -1.6133294001e+01 +6.5542445321e+01 -1.4573881711e+01 6.9054278231e+01 0.0000000000e+00 0.0000e+00 1.0000e+00
        5  1    4    4  501    0 +7.2583142621e+00 -2.8983331630e+00 +1.0868180535e+01 1.4187699221e+01 4.7000000000e+00 0.0000e+00 1.0000e+00
       -5  1    4    4    0  501 +1.1921050015e+01 -6.0861259477e+01 +4.7137375608e+01 7.8039903369e+01 4.7000000000e+00 0.0000e+00 1.0000e+00
        5  1    4    4  502    0 -5.5671607630e+00 +8.0474352174e-01 -4.2708584361e+00 8.4835796028e+00 4.7000000000e+00 0.0000e+00 -1.0000e+00
       -5  1    4    4    0  502 +6.8297088289e-01 +2.7616258757e+01 -1.9799284327e+01 3.4310725099e+01 4.7000000000e+00 0.0000e+00 -1.0000e+00
</event>
<event>
10      1 +4.6527485e-10 2.40000000e+02 7.81860800e-03 1.03012300e-01
      -11 -1    0    0    0    0 +0.0000000000e+00 +0.0000000000e+00 +1.2000000000e+02 1.2000000000e+02 0.0000000000e+00 0.0000e+00 1.0000e+00
       11 -1    0    0    0    0 -0.0000000000e+00 -0.0000000000e+00 -1.2000000000e+02 1.2000000000e+02 0.0000000000e+00 0.0000e+00 -1.0000e+00
       23  2    1    2    0    0 +2.9786063838e+01 -2.8471040581e+01 +3.2003402124e+01 1.0454958203e+02 9.0601256082e+01 0.0000e+00 0.0000e+00
       25  2    1    2    0    0 -2.9786063838e+01 +2.8471040581e+01 -3.2003402124e+01 1.3545041797e+02 1.2499915292e+02 0.0000e+00 0.0000e+00
      -11  1    3    3    0    0 -3.4870697029e+00 -1.0137239332e-01 +5.5023759674e+01 5.5134236733e+01 0.0000000000e+00 0.0000e+00 1.0000e+00
       11  1    3    3    0    0 +3.3273133540e+01 -2.8369668187e+01 -2.3020357550e+01 4.9415345293e+01 0.0000000000e+00 0.0000e+00 -1.0000e+00
        5  1    4    4  501    0 -1.8308019634e+01 -2.6057950070e+00 -6.1662824112e+00 2.0052101867e+01 4.7000000000e+00 0.0000e+00 1.0000e+00
       -5  1    4    4    0  502 +3.8402591811e-01 +3.7886988184e+01 -1.5267180098e+01 4.1118707880e+01 4.7000000000e+00 0.0000e+00 1.0000e+00
        5  1    4    4  502    0 +1.5073297422e+01 +2.4607278986e+01 -1.4141335186e+01 3.2477528155e+01 4.7000000000e+00 0.0000e+00 1.0000e+00
       -5  1    4    4    0  501 -2.6935367544e+01 -3.1417431583e+01 +3.5713955716e+00 4.1802080071e+01 4.7000000000e+00 0.0000e+00 -1.0000e+00
</event>
<event>
10      1 +4.6527485e-10 2.40000000e+02 7.81860800e-03 1.03012300e-01
      -11 -1    0    0    0    0 +0.0000000000e+00 +0.0000000000e+00 +1.2000000000e+02 1.2000000000e+02 0.0000000000e+00 0.0000e+00 1.0000e+00
       11 -1    0    0    0    0 -0.0000000000e+00 -0.0000000000e+00 -1.2000000000e+02 1.2000000000e+02 0.0000000000e+00 0.0000e+00 -1.0000e+00
       23  2    1    2    0    0 -4.7519049850e+01 -3.2038145872e+00 +9.8894053438e+00 1.0586952988e+02 9.4033145716e+01 0.0000e+00 0.0000e+00
       25  2    1    2    0    0 +4.7519049850e+01 +3.2038145872e+00 -9.8894053438e+00 1.3413047012e+02 1.2499943260e+02 0.0000e+00 0.0000e+00
      -13  1    3    3    0    0 +7.4897796512e+00 +1.5495282068e+01 +3.7710242210e+01 4.1451935216e+01 0.0000000000e+00 0.0000e+00 1.0000e+00
       13  1    3    3    0    0 -5.5008829501e+01 -1.8699096655e+01 -2.7820836867e+01 6.4417594667e+01 0.0000000000e+00 0.0000e+00 -1.0000e+00
        5  1    4    4  501    0 -3.0263867965e+01 -2.2451556776e+01 +1.0058778387e+01 3.9284133292e+01 4.7000000000e+00 0.0000e+00 -1.0000e+00
       -5  1    4    4    0  502 +1.8176984485e+01 +9.8996559279e+00 +6.0428752554e+00 2.2068355031e+01 4.7000000000e+00 0.0000e+00 1.0000e+00
        5  1    4    4  502    0 +6.0582732786e+01 +1.2351410290e+01 -2.4745033380e+01 6.6762500889e+01 4.7000000000e+00 0.0000e+00 1.0000e+00
       -5  1    4    4    0  501 -9.7679945601e-01 +3.4043051452e+00 -1.2460256058e+00 6.0154809042e+00 4.7000000000e+00 0.0000e+00 -1.0000e+00
</event>
<event>
10      1 +4.6527485e-10 2.40000000e+02 7.81860800e-03 1.03012300e-01
      -11 -1    0    0    0    0 +0.0000000000e+00 +0.0000000000e+00 +1.2000000000e+02 1.2000000000e+02 0.0000000000e+00 0.0000e+00 1.0000e+00
       11 -1    0    0    0    0 -0.0000000000e+00 -0.0000000000e+00 -1.2000000000e+02 1.2000000000e+02 0.0000000000e+00 0.0000e+00 -1.0000e+00
       23  2    1    2    0    0 -1.7432704133e+01 +1.5898869094e+01 +4.5666431203e+01 1.0484497545e+02 9.1380373861e+01 0.0000e+00 0.0000e+00
       25  2    1    2    0    0 +1.7432704133e+01 -1.5898869094e+01 -4.5666431203e+01 1.3515502455e+02 1.2499913804e+02 0.0000e+00 0.0000e+00
      -11  1    3    3    0    0 -5.1128212529e+01 +2.4683796555e+01 +1.5703564118e+01 5.8906585835e+01 0.0000000000e+00 0.0000e+00 -1.0000e+00
       11  1    3    3    0    0 +3.3695508397e+01 -8.7849274611e+00 +2.9962867085e+01 4.5938389617e+01 0.0000000000e+00 0.0000e+00 1.0000e+00
        5  1    4    4  501    0 -3.2035612236e+01 -4.4411095938e+01 -2.2005371273e+01 5.9202637260e+01 4.7000000000e+00 0.0000e+00 1.0000e+00
       -5  1    4    4    0  502 +1.3254589588e+01 +1.0720344994e+01 -3.8264526904e+00 1.8092586386e+01 4.7000000000e+00 0.0000e+00 -1.0000e+00
        5  1    4    4  502    0 +4.0281959740e+01 +2.0412825855e+01 -2.2418303847e+01 5.0635857722e+01 4.7000000000e+00 0.0000e+00 -1.0000e+00
       -5  1    4    4    0  501 -4.0682329601e+00 -2.6209440057e+00 +2.5836966075e+00 7.2239431793e+00 4.7000000000e+00 0.0000e+00 1.0000e+00
</event>
<event>
10      1 +4.6527485e-10 2.40000000e+02 7.81860800e-03 1.03012300e-01
      -11 -1    0    0    0    0 +0.0000000000e+00 +0.0000000000e+00 +1.2000000000e+02 1.2000000000e+02 0.0000000000e+00 0.0000e+00 1.0000e+00
       11 -1    0    0    0    0 -0.0000000000e+00 -0.0000000000e+00 -1.2000000000e+02 1.2000000000e+02 0.0000000000e+00 0.0000e+00 -1.0000e+00
       23  2    1    2    0    0 +1.1947456196e+01 -5.0018163839e+01 +6.3395630244e+00 1.0468846300e+02 9.0966619172e+01 0.0000e+00 0.0000e+00
       25  2    1    2    0    0 -1.1947456196e+01 +5.0018163839e+01 -6.3395630244e+00 1.3531153700e+02 1.2499785423e+02 0.0000e+00 0.0000e+00
      -13  1    3    3    0    0 +3.2264711148e+01 -6.7272592176e+01 +1.6055316631e+01 7.6317667913e+01 0.0000000000e+00 0.0000e+00 1.0000e+00
       13  1    3    3    0    0 -2.0317254952e+01 +1.7254428337e+01 -9.7157536064e+00 2.8370795092e+01 0.0000000000e+00 0.0000e+00 -1.0000e+00
        5  1    4    4  501    0 -3.9648880672e+01 +5.5838874145e+01 +2.0958119883e+00 6.8676750303e+01 4.7000000000e+00 0.0000e+00 1.0000e+00
       -5  1    4    4    0  502 +5.9805651041e+00 -1.5749063516e+00 -1.0660336028e+01 1.3190157437e+01 4.7000000000e+00 0.0000e+00 1.0000e+00
        5  1    4    4  502    0 +2.5903755976e+01 -2.1953677805e+01 -1.3916069155e+00 3.4307362367e+01 4.7000000000e+00 0.0000e+00 1.0000e+00
       -5  1    4    4    0  501 -4.1828966037e+00 +1.7707873851e+01 +3.6165679311e+00 1.9137266887e+01 4.7000000000e+00 0.0000e+00 1.0000e+00
</event>
<event>
10      1 +4.6527485e-10 2.40000000e+02 7.81860800e-03 1.03012300e-01
      -11 -1    0    0    0    0 +0.0000000000e+00 +0.0000000000e+00 +1.2000000000e+02 1.2000000000e+02 0.0000000000e+00 0.0000e+00 1.0000e+00
       11 -1    0    0    0    0 -0.0000000000e+00 -0.0000000000e+00 -1.2000000000e+02 1.2000000000e+02 0.0000000000e+00 0.0000e+00 -1.0000e+00
       23  2    1    2    0    0 -3.8617985955e+01 -3.0236633624e+01 +1.4259291628e+01 1.0496850420e+02 9.1703089498e+01 0.0000e+00 0.0000e+00
       25  2    1    2    0    0 +3.8617985955e+01 +3.0236633624e+01 -1.4259291628e+01 1.3503149580e+02 1.2499829842e+02 0.0000e+00 0.0000e+00
      -11  1    3    3    0    0 -1.2454365150e+01 +1.0433412764e+00 +4.9511191797e+01 5.1064252520e+01 0.0000000000e+00 0.0000e+00 1.0000e+00
       11  1    3    3    0    0 -2.6163620805e+01 -3.1279974901e+01 -3.5251900168e+01 5.3904251677e+01 0.0000000000e+00 0.0000e+00 -1.0000e+00
        5  1    4    4  501    0 +5.2480803168e+00 -3.9473264926e+00 +1.3038899880e+01 1.5337100232e+01 4.7000000000e+00 0.0000e+00 1.0000e+00
       -5  1    4    4    0  501 +4.0177535017e+01 -8.9938123448e+00 +2.5310186186e+01 4.8557373336e+01 4.7000000000e+00 0.0000e+00 1.0000e+00
        5  1    4    4  502    0 +2.5964253836e+00 +2.5151060305e+01 -2.0714836903e+01 3.3022897013e+01 4.7000000000e+00 0.0000e+00 -1.0000e+00
       -5  1    4    4    0  502 -9.4040547625e+00 +1.8026712157e+01 -3.1893540792e+01 3.8114125221e+01 4.7000000000e+00 0.0000e+00 -1.0000e+00
</event>
<event>
10      1 +4.6527485e-10 2.40000000e+02 7.81860800e-03 1.03012300e-01
      -11 -1    0    0    0    0 +0.0000000000e+00 +0.0000000000e+00 +1.2000000000e+02 1.2000000000e+02 0.0000000000e+00 0.0000e+00 1.0000e+00
       11 -1    0    0    0    0 -0.0000000000e+00 -0.0000000000e+00 -1.2000000000e+02 1.2000000000e+02 0.0000000000e+00 0.0000e+00 -1.0000e+00
       23  2    1    2    0    0 -1.4021101687e+01 +5.1551415233e+01 +1.0606199786e+01 1.0365330441e+02 8.8189434379e+01 0.0000e+00 0.0000e+00
       25  2    1    2    0    0 +1.4021101687e+01 -5.1551415233e+01 -1.0606199786e+01 1.3634669559e+02 1.2499516078e+02 0.0000e+00 0.0000e+00
      -13  1    3    3    0    0 +3.0844342397e+01 +4.8744223595e+01 +1.0873745337e+01 5.8699328186e+01 0.0000000000e+00 0.0000e+00 1.0000e+00
       13  1    3    3    0    0 -4.4865444084e+01 +2.8071916384e+00 -2.6754555055e-01 4.4953976224e+01 0.0000000000e+00 0.0000e+00 -1.0000e+00
        5  1    4    4  501    0 +2.3602232941e+00 -5.6595922801e+01 -3.7005805497e+00 5.6960103828e+01 4.7000000000e+00 0.0000e+00 -1.0000e+00
       -5  1    4    4    0  502 +3.2888714932e+00 +1.8263878298e+01 +7.1092547727e+00 2.0421004618e+01 4.7000000000e+00 0.0000e+00 -1.0000e+00
        5  1    4    4  502    0 +1.7696972936e+01 +1.7043469953e+01 -3.4402897421e+00 2.5250511136e+01 4.7000000000e+00 0.0000e+00 -1.0000e+00
       -5  1    4    4    0  501 -9.3249660364e+00 -3.0262840684e+01 -1.0574584267e+01 3.3715076008e+01 4.7000000000e+00 0.0000e+00 -1.0000e+00
</event>
<event>
10      1 +4.6527485e-10 2.40000000e+02 7.81860800e-03 1.03012300e-01
      -11 -1    0    0    0    0 +0.0000000000e+00 +0.0000000000e+00 +1.2000000000e+02 1.2000000000e+02 0.0000000000e+00 0.0000e+00 1.0000e+00
       11 -1    0    0    0    0 -0.0000000000e+00 -0.0000000000e+00 -1.2000000000e+02 1.2000000000e+02 0.0000000000e+00 0.0000e+00 -1.0000e+00
       23  2    1    2    0    0 -1.9087028633e+00 -5.0044983093e+01 +1.3259834756e+01 1.0468790670e+02 9.0970275982e+01 0.0000e+00 0.0000e+00
       25  2    1    2    0    0 +1.9087028633e+00 +5.0044983093e+01 -1.3259834756e+01 1.3531209330e+02 1.2500158357e+02 0.0000e+00 0.0000e+00
      -13  1    3    3    0    0 -5.9053392821e+00 -6.5426498896e+01 -1.9289590369e+01 6.8465962978e+01 0.0000000000e+00 0.0000e+00 -1.0000e+00
       13  1    3    3    0    0 +3.9966364188e+00 +1.5381515803e+01 +3.2549425125e+01 3.6221943723e+01 0.0000000000e+00 0.0000e+00 1.0000e+00
        5  1    4    4  501    0 +6.6824474234e+00 +7.9783862671e-01 -3.8073986905e+01 3.8948814217e+01 4.7000000000e+00 0.0000e+00 1.0000e+00
       -5  1    4    4    0  501 +8.9172912940e+00 -1.0101674365e+01 -1.4931790696e+01 2.0654546289e+01 4.7000000000e+00 0.0000e+00 1.0000e+00
        5  1    4    4  502    0 -1.6892362570e+01 +3.4922884931e+01 +2.0731025321e+01 4.4236017180e+01 4.7000000000e+00 0.0000e+00 -1.0000e+00
       -5  1    4    4    0  502 +3.2013267159e+00 +2.4425933901e+01 +1.9014917524e+01 3.1472715614e+01 4.7000000000e+00 0.0000e+00 -1.0000e+00
</event>
<event>
10      1 +4.6527485e-10 2.40000000e+02 7.81860800e-03 1.03012300e-01
      -11 -1    0    0    0    0 +0.0000000000e+00 +0.0000000000e+00 +1.2000000000e+02 1.2000000000e+02 0.0000000000e+00 0.0000e+00 -1.0000e+00
       11 -1    0    0    0    0 -0.0000000000e+00 -0.0000000000e+00 -1.2000000000e+02 1.2000000000e+02 0.0000000000e+00 0.0000e+00 1.0000e+00
       23  2    1    2    0    0 -3.3877052023e+01 -2.3519968093e+01 -3.3721969688e+01 1.0411905928e+02 8.9458167396e+01 0.0000e+00 0.0000e+00
       25  2    1    2    0    0 +3.3877052023e+01 +2.3519968093e+01 +3.3721969688e+01 1.3588094072e+02 1.2500246101e+02 0.0000e+00 0.0000e+00
      -13  1    3    3    0    0 -4.0314541121e+01 +1.2511025962e+01 -4.8809113045e+01 6.4529973754e+01 0.0000000000e+00 0.0000e+00 1.0000e+00
       13  1    3    3    0    0 +6.4374890985e+00 -3.6030994055e+01 +1.5087143357e+01 3.9589085531e+01 0.0000000000e+00 0.0000e+00 -1.0000e+00
        5  1    4    4  501    0 +1.6809754576e+01 +2.8177359387e+00 +1.8886060230e+00 1.7781010023e+01 4.7000000000e+00 0.0000e+00 1.0000e+00
       -5  1    4    4    0  502 -3.5844854728e+01 +2.5717093144e+01 +9.2887108446e+00 4.5327614535e+01 4.7000000000e+00 0.0000e+00 1.0000e+00
        5  1    4    4  502    0 -5.1752990681e+00 +2.9922591173e+00 -3.5828025624e+00 8.4061768522e+00 4.7000000000e+00 0.0000e+00 -1.0000e+00
       -5  1    4    4    0  501 +5.8087451243e+01 -8.0071201075e+00 +2.6127455383e+01 6.4366139305e+01 4.7000000000e+00 0.0000e+00 1.0000e+00
</event>
<event>
10      1 +4.6527485e-10 2.40000000e+02 7.81860800e-03 1.03012300e-01
      -11 -1    0    0    0    0 +0.0000000000e+00 +0.0000000000e+00 +1.2000000000e+02 1.2000000000e+02 0.0000000000e+00 0.0000e+00 -1.0000e+00
       11 -1    0    0    0    0 -0.0000000000e+00 -0.0000000000e+00 -1.2000000000e+02 1.2000000000e+02 0.0000000000e+00 0.0000e+00 1.0000e+00
       23  2    1    2    0    0 +3.8069294405e+01 +2.4759491079e+01 +2.2584019364e+01 1.0507199872e+02 9.2020559714e+01 0.0000e+00 0.0000e+00
       25  2    1    2    0    0 -3.8069294405e+01 -2.4759491079e+01 -2.2584019364e+01 1.3492800128e+02 1.2503289176e+02 0.0000e+00 0.0000e+00
      -13  1    3    3    0    0 +1.5451441867e+00 +9.4664162537e+00 -3.4382684590e+01 3.5695511019e+01 0.0000000000e+00 0.0000e+00 1.0000e+00
       13  1    3    3    0    0 +3.6524150219e+01 +1.5293074825e+01 +5.6966703954e+01 6.9376487704e+01 0.0000000000e+00 0.0000e+00 -1.0000e+00
        5  1    4    4  501    0 -1.4776647523e+01 -1.6605018850e+01 +7.2431568699e-01 2.2730829203e+01 4.7000000000e+00 0.0000e+00 -1.0000e+00
       -5  1    4    4    0  502 -1.1849516506e+01 -1.1423935693e+01 -2.7551084993e+01 3.2435622893e+01 4.7000000000e+00 0.0000e+00 1.0000e+00
        5  1    4    4  502    0 +1.6550590837e+01 +2.6340644216e+01 -1.8684052159e+01 3.6591466216e+01 4.7000000000e+00 0.0000e+00 1.0000e+00
       -5  1    4    4    0  501 -2.7993721214e+01 -2.3071180751e+01 +2.2926802101e+01 4.3170082966e+01 4.7000000000e+00 0.0000e+00 -1.0000e+00
</event>
<event>
10      1 +4.6527485e-10 2.40000000e+02 7.81860800e-03 1.03012300e-01
      -11 -1    0    0    0    0 +0.0000000000e+00 +0.0000000000e+00 +1.2000000000e+02 1.2000000000e+02 0.0000000000e+00 0.0000e+00 1.0000e+00
       11 -1    0    0    0    0 -0.0000000000e+00 -0.0000000000e+00 -1.2000000000e+02 1.2000000000e+02 0.0000000000e+00 0.0000e+00 -1.0000e+00
       23  2    1    2    0    0 -4.0790254790e+01 +5.2157689286e+00 +3.1040601270e+01 1.0479787752e+02 9.1258024714e+01 0.0000e+00 0.0000e+00
       25  2    1    2    0    0 +4.0790254790e+01 -5.2157689286e+00 -3.1040601270e+01 1.3520212248e+02 1.2500018346e+02 0.0000e+00 0.0000e+00
      -11  1    3    3    0    0 -8.5354000088e+00 +4.6228437819e+01 +7.6909895822e+00 4.7634786000e+01 0.0000000000e+00 0.0000e+00 1.0000e+00
       11  1    3    3    0    0 -3.2254854781e+01 -4.1012668890e+01 +2.3349611688e+01 5.7163091523e+01 0.0000000000e+00 0.0000e+00 -1.0000e+00
        5  1    4    4  501    0 +5.1462181025e+01 -3.8845572649e+01 +1.5062414489e+00 6.4666013898e+01 4.7000000000e+00 0.0000e+00 1.0000e+00
       -5  1    4    4    0  502 -9.1888202524e+00 +1.7339502004e+01 +8.8970288146e-01 2.0198374158e+01 4.7000000000e+00 0.0000e+00 -1.0000e+00
        5  1    4    4  502    0 -8.1202578310e+00 +2.4369528783e+01 -2.2007905578e+01 3.4150408903e+01 4.7000000000e+00 0.0000e+00 -1.0000e+00
       -5  1    4    4    0  501 +6.6371518484e+00 -8.0792270671e+00 -1.1428640023e+01 1.6187325518e+01 4.7000000000e+00 0.0000e+00 1.0000e+00
</event>
<event>
10      1 +4.6527485e-10 2.40000000e+02 7.81860800e-03 1.03012300e-01
      -11 -1    0    0    0    0 +0.0000000000e+00 +0.0000000000e+00 +1.2000000000e+02 1.2000000000e+02 0.0000000000e+00 0.0000e+00 -1.0000e+00
       11 -1    0    0    0    0 -0.0000000000e+00 -0.0000000000e+00 -1.2000000000e+02 1.2000000000e+02 0.0000000000e+00 0.0000e+00 1.0000e+00
       23  2    1    2    0    0 -1.0542671669e+01 -3.7323177234e+01 +3.2249015566e+01 1.0520742412e+02 9.2327870122e+01 0.0000e+00 0.0000e+00
       25  2    1    2    0    0 +1.0542671669e+01 +3.7323177234e+01 -3.2249015566e+01 1.3479257588e+02 1.2499948808e+02 0.0000e+00 0.0000e+00
      -11  1    3    3    0    0 -4.4474467279e+01 -2.2924325253e+01 -7.9548849987e+00 5.0663429842e+01 0.0000000000e+00 0.0000e+00 1.0000e+00
       11  1    3    3    0    0 +3.3931795610e+01 -1.4398851981e+01 +4.0203900565e+01 5.4543994283e+01 0.0000000000e+00 0.0000e+00 -1.0000e+00
        5  1    4    4  501    0 -1.9266628635e+01 +8.7096477990e+00 -2.5586897873e+01 3.3523727217e+01 4.7000000000e+00 0.0000e+00 1.0000e+00
       -5  1    4    4    0  502 +2.6016001173e+00 +5.7300909468e+00 +1.5862889342e+00 8.0130255217e+00 4.7000000000e+00 0.0000e+00 -1.0000e+00
        5  1    4    4  502    0 +3.2083097631e+01 +7.7018999220e+00 +3.4148520663e+01 4.7716411007e+01 4.7000000000e+00 0.0000e+00 -1.0000e+00
       -5  1    4    4    0  501 -4.8753974437e+00 +1.5181538566e+01 -4.2396927290e+01 4.5539412129e+01 4.7000000000e+00 0.0000e+00 1.0000e+00
</event>
<event>
10      1 +4.6527485e-10 2.40000000e+02 7.81860800e-03 1.03012300e-01
      -11 -1    0    0    0    0 +0.0000000000e+00 +0.0000000000e+00 +1.2000000000e+02 1.2000000000e+02 0.0000000000e+00 0.0000e+00 1.0000e+00
       11 -1    0    0    0    0 -0.0000000000e+00 -0.0000000000e+00 -1.2000000000e+02 1.2000000000e+02 0.0000000000e+00 0.0000e+00 -1.0000e+00
       23  2    1    2    0    0 -2.7618668494e+00 -4.9863420686e+01 +1.0995879825e+01 1.0494562551e+02 9.1644346849e+01 0.0000e+00 0.0000e+00
       25  2    1    2    0    0 +2.7618668494e+00 +4.9863420686e+01 -1.0995879825e+01 1.3505437449e+02 1.2499914426e+02 0.0000e+00 0.0000e+00
      -13  1    3    3    0    0 +3.5778676270e+01 -4.2910492000e+01 +2.7711636117e+01 6.2364723808e+01 0.0000000000e+00 0.0000e+00 1.0000e+00
       13  1    3    3    0    0 -3.8540543120e+01 -6.9529286859e+00 -1.6715756292e+01 4.2580901701e+01 0.0000000000e+00 0.0000e+00 -1.0000e+00
        5  1    4    4  501    0 -2.3051968597e+01 +1.9718100092e+01 -4.2887397535e+01 5.2741023831e+01 4.7000000000e+00 0.0000e+00 -1.0000e+00
       -5  1    4    4    0  502 +3.4631007428e+00 -2.3127908745e+00 -6.3806399383e+00 8.9523535680e+00 4.7000000000e+00 0.0000e+00 -1.0000e+00
        5  1    4    4  502    0 -3.7173820070e+00 +1.5669766903e+01 -7.0905618911e+00 1.8213362998e+01 4.7000000000e+00 0.0000e+00 1.0000e+00
       -5  1    4    4    0  501 +2.6068116711e+01 +1.6788344566e+01 +4.5362719539e+01 5.5147634093e+01 4.7000000000e+00 0.0000e+00 1.0000e+00
</event>
<event>
10      1 +4.6527485e-10 2.40000000e+02 7.81860800e-03 1.03012300e-01
      -11 -1    0    0    0    0 +0.0000000000e+00 +0.0000000000e+00 +1.2000000000e+02 1.2000000000e+02 0.0000000000e+00 0.0000e+00 1.0000e+00
       11 -1    0    0    0    0 -0.0000000000e+00 -0.0000000000e+00 -1.2000000000e+02 1.2000000000e+02 0.0000000000e+00 0.0000e+00 -1.0000e+00
       23  2    1    2    0    0 +1.5807424638e+01 -4.9434720546e+01 +3.7093045894e+00 1.0460221366e+02 9.0742481190e+01 0.0000e+00 0.0000e+00
       25  2    1    2    0    0 -1.5807424638e+01 +4.9434720546e+01 -3.7093045894e+00 1.3539778634e+02 1.2500054135e+02 0.0000e+00 0.0000e+00
      -11  1    3    3    0    0 -1.6312653433e-01 +2.2678532912e+01 -1.6477145631e+01 2.8032816367e+01 0.0000000000e+00 0.0000e+00 -1.0000e+00
       11  1    3    3    0    0 +1.5970551172e+01 -7.2113253458e+01 +2.0186450220e+01 7.6569397291e+01 0.0000000000e+00 0.0000e+00 1.0000e+00
        5  1    4    4  501    0 +5.5814907628e+00 -6.3052056433e+00 +1.0918841366e+01 1.4567764211e+01 4.7000000000e+00 0.0000e+00 1.0000e+00
       -5  1    4    4    0  501 -4.7119791005e+00 -2.8671491340e+01 +4.7496259996e+00 2.9814528503e+01 4.7000000000e+00 0.0000e+00 1.0000e+00
        5  1    4    4  502    0 -2.0956273392e+01 +6.8246586529e+01 -1.6206504864e+01 7.3358726593e+01 4.7000000000e+00 0.0000e+00 -1.0000e+00
       -5  1    4    4    0  502 +4.2793370921e+00 +1.6164830999e+01 -3.1712670905e+00 1.7656767036e+01 4.7000000000e+00 0.0000e+00 -1.0000e+00
</event>
<event>
10      1 +4.6527485e-10 2.40000000e+02 7.81860800e-03 1.03012300e-01
      -11 -1    0    0    0    0 +0.0000000000e+00 +0.0000000000e+00 +1.2000000000e+02 1.2000000000e+02 0.0000000000e+00 0.0000e+00 1.0000e+00
       11 -1    0    0    0    0 -0.0000000000e+00 -0.0000000000e+00 -1.2000000000e+02 1.2000000000e+02 0.0000000000e+00 0.0000e+00 -1.0000e+00
       23  2    1    2    0    0 -1.6917526831e+01 +2.2824316529e+01 +3.1590294708e+01 1.0797594774e+02 9.9265837187e+01 0.0000e+00 0.0000e+00
       25  2    1    2    0    0 +1.6917526831e+01 -2.2824316529e+01 -3.1590294708e+01 1.3202405226e+02 1.2500100606e+02 0.0000e+00 0.0000e+00
      -13  1    3    3    0    0 +3.2358607481e+01 +3.7305686273e+01 +2.7323449285e+01 5.6439034252e+01 0.0000000000e+00 0.0000e+00 1.0000e+00
       13  1    3    3    0    0 -4.9276134313e+01 -1.4481369744e+01 +4.2668454231e+00 5.1536913493e+01 0.0000000000e+00 0.0000e+00 -1.0000e+00
        5  1    4    4  501    0 +2.8904951616e+01 +5.4447708554e+00 -3.1958658155e+01 4.3687384777e+01 4.7000000000e+00 0.0000e+00 -1.0000e+00
       -5  1    4    4    0  502 -2.2211445898e+01 -3.2127015888e+01 +1.7213346130e+01 4.2940456026e+01 4.7000000000e+00 0.0000e+00 1.0000e+00
        5  1    4    4  502    0 -1.2741621148e+01 -7.8997134575e+00 -4.0956722306e+00 1.6236345439e+01 4.7000000000e+00 0.0000e+00 -1.0000e+00
       -5  1    4    4    0  501 +2.2965642261e+01 +1.1757641961e+01 -1.2749310453e+01 2.9159866014e+01 4.7000000000e+00 0.0000e+00 -1.0000e+00
</event>
<event>
10      1 +4.6527485e-10 2.40000000e+02 7.81860800e-03 1.03012300e-01
      -11 -1    0    0    0    0 +0.0000000000e+00 +0.0000000000e+00 +1.2000000000e+02 1.2000000000e+02 0.0000000000e+00 0.0000e+00 1.0000e+00
       11 -1    0    0    0    0 -0.0000000000e+00 -0.0000000000e+00 -1.2000000000e+02 1.2000000000e+02 0.0000000000e+00 0.0000e+00 -1.0000e+00
       23  2    1    2    0    0 -1.9779317681e+01 +2.9161160616e+01 +3.7182736228e+01 1.0490990982e+02 9.1552927906e+01 0.0000e+00 0.0000e+00
       25  2    1    2    0    0 +1.9779317681e+01 -2.9161160616e+01 -3.7182736228e+01 1.3509009018e+02 1.2500072758e+02 0.0000e+00 0.0000e+00
      -11  1    3    3    0    0 -2.1468784143e+01 -1.3308055857e+01 -2.1005521338e+01 3.2851864026e+01 0.0000000000e+00 0.0000e+00 -1.0000e+00
       11  1    3    3    0    0 +1.6894664619e+00 +4.2469216473e+01 +5.8188257566e+01 7.2058045792e+01 0.0000000000e+00 0.0000e+00 1.0000e+00
        5  1    4    4  501    0 +2.4676887456e-01 -6.8518670851e-01 -1.2360895422e-01 4.7576942815e+00 4.7000000000e+00 0.0000e+00 1.0000e+00
       -5  1    4    4    0  501 +1.2013403330e+01 +4.5606586892e+01 -1.8283800696e+01 5.0800295229e+01 4.7000000000e+00 0.0000e+00 1.0000e+00
        5  1    4    4  502    0 -5.8925910430e+00 -2.2157721875e+01 -4.4459978401e+00 2.3823185443e+01 4.7000000000e+00 0.0000e+00 1.0000e+00
       -5  1    4    4    0  502 +1.3411736520e+01 -5.1924838925e+01 -1.4329328738e+01 5.5708915228e+01 4.7000000000e+00 0.0000e+00 1.0000e+00
</event>
<event>
10      1 +4.6527485e-10 2.40000000e+02 7.81860800e-03 1.03012300e-01
      -11 -1    0    0    0    0 +0.0000000000e+00 +0.0000000000e+00 +1.2000000000e+02 1.2000000000e+02 0.0000000000e+00 0.0000e+00 -1.0000e+00
       11 -1    0    0    0    0 -0.0000000000e+00 -0.0000000000e+00 -1.2000000000e+02 1.2000000000e+02 0.0000000000e+00 0.0000e+00 1.0000e+00
       23  2    1    2    0    0 +4.5976049720e+01 -2.2703054767e+01 -1.5775019437e+01 1.0397377060e+02 8.9064403057e+01 0.0000e+00 0.0000e+00
       25  2    1    2    0    0 -4.5976049720e+01 +2.2703054767e+01 +1.5775019437e+01 1.3602622940e+02 1.2500023201e+02 0.0000e+00 0.0000e+00
      -11  1    3    3    0    0 +4.7109637439e+01 -5.5898192211e+00 +2.9291259883e+01 5.5754299602e+01 0.0000000000e+00 0.0000e+00 -1.0000e+00
       11  1    3    3    0    0 -1.1335877196e+00 -1.7113235546e+01 -4.5066279320e+01 4.8219471002e+01 0.0000000000e+00 0.0000e+00 1.0000e+00
        5  1    4    4  501    0 -5.1033036978e+01 +2.7532330496e+00 +2.8636426106e+00 5.1402739269e+01 4.7000000000e+00 0.0000e+00 -1.0000e+00
       -5  1    4    4    0  501 +2.2908956212e-01 -2.5324797894e+01 +2.1995322883e+01 3.3871552948e+01 4.7000000000e+00 0.0000e+00 -1.0000e+00
        5  1    4    4  502    0 +5.6822404254e+00 +2.9701567872e+01 -1.4117648607e+01 3.3702655571e+01 4.7000000000e+00 0.0000e+00 -1.0000e+00
       -5  1    4    4    0  502 -8.5434272969e-01 +1.5573051739e+01 +5.0337025508e+00 1.7049281607e+01 4.7000000000e+00 0.0000e+00 -1.0000e+00
</event>
<event>
10      1 +4.6527485e-10 2.40000000e+02 7.81860800e-03 1.03012300e-01
      -11 -1    0    0    0    0 +0.0000000000e+00 +0.0000000000e+00 +1.2000000000e+02 1.2000000000e+02 0.0000000000e+00 0.0000e+00 -1.0000e+00
       11 -1    0    0    0    0 -0.0000000000e+00 -0.0000000000e+00 -1.2000000000e+02 1.2000000000e+02 0.0000000000e+00 0.0000e+00 1.0000e+00
       23  2    1    2    0    0 +7.9356862743e+00 -1.8272525378e+01 +4.9087451077e+01 1.0423616866e+02 8.9770489051e+01 0.0000e+00 0.0000e+00
       25  2    1    2    0    0 -7.9356862743e+00 +1.8272525378e+01 -4.9087451077e+01 1.3576383134e+02 1.2500151897e+02 0.0000e+00 0.0000e+00
      -11  1    3    3    0    0 -5.1963349285e+00 -4.1269084302e+01 +6.2089547703e+01 7.4734537864e+01 0.0000000000e+00 0.0000e+00 -1.0000e+00
       11  1    3    3    0    0 +1.3132021203e+01 +2.2996558924e+01 -1.3002096626e+01 2.9501630801e+01 0.0000000000e+00 0.0000e+00 1.0000e+00
        5  1    4    4  501    0 +8.3989209658e+00 -7.7452247700e+00 +6.6630801113e-01 1.2371917656e+01 4.7000000000e+00 0.0000e+00 1.0000e+00
       -5  1    4    4    0  502 +1.6335327007e+01 +2.7935451303e+01 -2.0048251993e+01 3.8356938824e+01 4.7000000000e+00 0.0000e+00 1.0000e+00
        5  1    4    4  502    0 -1.1058466502e+01 +3.4761925395e+01 -1.5451975941e+01 3.9894043403e+01 4.7000000000e+00 0.0000e+00 1.0000e+00
       -5  1    4    4    0  501 -2.1611467745e+01 -3.6679626551e+01 -1.4253531155e+01 4.5140931452e+01 4.7000000000e+00 0.0000e+00 1.0000e+00
</event>
<event>
10      1 +4.6527485e-10 2.40000000e+02 7.81860800e-03 1.03012300e-01
      -11 -1    0    0    0    0 +0.0000000000e+00 +0.0000000000e+00 +1.2000000000e+02 1.2000000000e+02 0.0000000000e+00 0.0000e+00 1.0000e+00
       11 -1    0    0    0    0 -0.0000000000e+00 -0.0000000000e+00 -1.2000000000e+02 1.2000000000e+02 0.0000000000e+00 0.0000e+00 -1.0000e+00
       23  2    1    2    0    0 +5.1749129256e+01 -1.4450738015e+01 -1.2709737898e+01 1.0334866888e+02 8.7364831109e+01 0.0000e+00 0.0000e+00
       25  2    1    2    0    0 -5.1749129256e+01 +1.4450738015e+01 +1.2709737898e+01 1.3665133112e+02 1.2500101060e+02 0.0000e+00 0.0000e+00
      -11  1    3    3    0    0 +7.3856892456e+01 -2.1724544069e+01 -3.2796074381e-01 7.6986387995e+01 0.0000000000e+00 0.0000e+00 1.0000e+00
       11  1    3    3    0    0 -2.2107763200e+01 +7.2738060541e+00 -1.2381777154e+01 2.6362280890e+01 0.0000000000e+00 0.0000e+00 -1.0000e+00
        5  1    4    4  501    0 -8.3275239866e+00 -1.6844683964e+00 +1.2536890588e+00 9.7901392116e+00 4.7000000000e+00 0.0000e+00 1.0000e+00
       -5  1    4    4    0  501 -7.5492952184e+00 +1.9180181977e+00 -5.6925940214e+00 1.0731555283e+01 4.7000000000e+00 0.0000e+00 1.0000e+00
        5  1    4    4  502    0 -7.9097276783e+00 +5.9227521838e+01 +1.9068308646e+01 6.2897961252e+01 4.7000000000e+00 0.0000e+00 1.0000e+00
       -5  1    4    4    0  502 -2.7962582373e+01 -4.5010333624e+01 -1.9196657856e+00 5.3231675369e+01 4.7000000000e+00 0.0000e+00 1.0000e+00
</event>
<event>
10      1 +4.6527485e-10 2.40000000e+02 7.81860800e-03 1.03012300e-01
      -11 -1    0    0    0    0 +0.0000000000e+00 +0.0000000000e+00 +1.2000000000e+02 1.2000000000e+02 0.0000000000e+00 0.0000e+00 1.0000e+00
       11 -1    0    0    0    0 -0.0000000000e+00 -0.0000000000e+00 -1.2000000000e+02 1.2000000000e+02 0.0000000000e+00 0.0000e+00 -1.0000e+00
       23  2    1    2    0    0 +5.0262429207e+01 +8.2856805257e-01 -6.0719517853e+00 1.0513371021e+02 9.2137018128e+01 0.0000e+00 0.0000e+00
       25  2    1    2    0    0 -5.0262429207e+01 -8.2856805257e-01 +6.0719517853e+00 1.3486628979e+02 1.2500019683e+02 0.0000e+00 0.0000e+00
      -13  1    3    3    0    0 -1.0057571708e+01 -3.8919852205e-02 -3.6293119537e+01 3.7660945144e+01 0.0000000000e+00 0.0000e+00 -1.0000e+00
       13  1    3    3    0    0 +6.0320000915e+01 +8.6748790477e-01 +3.0221167752e+01 6.7472765068e+01 0.0000000000e+00 0.0000e+00 1.0000e+00
        5  1    4    4  501    0 -2.5210070751e+01 -1.7833319070e-01 +1.1597773921e+01 2.8145653837e+01 4.7000000000e+00 0.0000e+00 -1.0000e+00
       -5  1    4    4    0  502 +7.5288454209e+00 -3.0168086301e+00 -8.1316752611e+00 1.2409624903e+01 4.7000000000e+00 0.0000e+00 1.0000e+00
        5  1    4    4  502    0 +7.4509743759e-01 +1.6888913809e+00 -3.9827668042e+01 4.0146490083e+01 4.7000000000e+00 0.0000e+00 1.0000e+00
       -5  1    4    4    0  501 -3.3326301314e+01 +6.7768238737e-01 +4.2433521168e+01 5.4164520965e+01 4.7000000000e+00 0.0000e+00 -1.0000e+00
</event>
<event>
10      1 +4.6527485e-10 2.40000000e+02 7.81860800e-03 1.03012300e-01
      -11 -1    0    0    0    0 +0.0000000000e+00 +0.0000000000e+00 +1.2000000000e+02 1.2000000000e+02 0.0000000000e+00 0.0000e+00 -1.0000e+00
       11 -1    0    0    0    0 -0.0000000000e+00 -0.0000000000e+00 -1.2000000000e+02 1.2000000000e+02 0.0000000000e+00 0.0000e+00 1.0000e+00
       23  2    1    2    0    0 -2.3811487891e+01 -2.7805166290e+01 +3.3273278149e+01 1.0556298296e+02 9.3254051413e+01 0.0000e+00 0.0000e+00
       25  2    1    2    0    0 +2.3811487891e+01 +2.7805166290e+01 -3.3273278149e+01 1.3443701704e+02 1.2500434506e+02 0.0000e+00 0.0000e+00
      -13  1    3    3    0    0 -5.6280141424e+01 -1.0010491592e+01 +2.1657375306e+00 5.7204498771e+01 0.0000000000e+00 0.0000e+00 1.0000e+00
       13  1    3    3    0    0 +3.2468653533e+01 -1.7794674698e+01 +3.1107540618e+01 4.8358484190e+01 0.0000000000e+00 0.0000e+00 -1.0000e+00
        5  1    4    4  501    0 +4.2549069496e+01 +1.7174057547e+01 -5.5381171437e+01 7.2073127568e+01 4.7000000000e+00 0.0000e+00 1.0000e+00
       -5  1    4    4    0  502 -7.6222598173e+00 -7.6855801712e+00 +1.4787459842e+00 1.1893009584e+01 4.7000000000e+00 0.0000e+00 1.0000e+00
        5  1    4    4  502    0 -2.1275990249e+01 +1.0786912323e+01 +2.6317407968e+01 3.5829055258e+01 4.7000000000e+00 0.0000e+00 1.0000e+00
       -5  1    4    4    0  501 +1.0160668461e+01 +7.5297765915e+00 -5.6882606633e+00 1.4641824629e+01 4.7000000000e+00 0.0000e+00 1.0000e+00
</event>
<event>
10      1 +4.6527485e-10 2.40000000e+02 7.81860800e-03 1.03012300e-01
      -11 -1    0    0    0    0 +0.0000000000e+00 +0.0000000000e+00 +1.2000000000e+02 1.2000000000e+02 0.0000000000e+00 0.0000e+00 1.0000e+00
       11 -1    0    0    0    0 -0.0000000000e+00 -0.0000000000e+00 -1.2000000000e+02 1.2000000000e+02 0.0000000000e+00 0.0000e+00 -1.0000e+00
       23  2    1    2    0    0 +2.6403668360e+01 +4.2660084713e+01 +1.5125514181e+01 1.0445815064e+02 9.0364193824e+01 0.0000e+00 0.0000e+00
       25  2    1    2    0    0 -2.6403668360e+01 -4.2660084713e+01 -1.5125514181e+01 1.3554184936e+02 1.2500310083e+02 0.0000e+00 0.0000e+00
      -13  1    3    3    0    0 -2.4011618047e+01 +1.7695601955e+01 +3.3896447459e+01 4.5151536853e+01 0.0000000000e+00 0.0000e+00 1.0000e+00
       13  1    3    3    0    0 +5.0415286407e+01 +2.4964482758e+01 -1.8770933278e+01 5.9306613788e+01 0.0000000000e+00 0.0000e+00 -1.0000e+00
        5  1    4    4  501    0 +7.8274571811e+00 +1.7463696036e+01 -3.7517009350e+01 4.2377656326e+01 4.7000000000e+00 0.0000e+00 1.0000e+00
       -5  1    4    4    0  501 +5.4478867745e+00 +6.9103201842e+00 +1.8451785890e+00 1.0145278674e+01 4.7000000000e+00 0.0000e+00 1.0000e+00
        5  1    4    4  502    0 -2.2960726440e+01 -5.2809176864e+01 +1.7475180465e+01 6.0361213142e+01 4.7000000000e+00 0.0000e+00 1.0000e+00
       -5  1    4    4    0  502 -1.6718285875e+01 -1.4224924069e+01 +3.0711361147e+00 2.2657701217e+01 4.7000000000e+00 0.0000e+00 1.0000e+00
</event>
<event>
10      1 +4.6527485e-10 2.40000000e+02 7.81860800e-03 1.03012300e-01
      -11 -1    0    0    0    0 +0.0000000000e+00 +0.0000000000e+00 +1.2000000000e+02 1.2000000000e+02 0.0000000000e+00 0.0000e+00 1.0000e+00
       11 -1    0    0    0    0 -0.0000000000e+00 -0.0000000000e+00 -1.2000000000e+02 1.2000000000e+02 0.0000000000e+00 0.0000e+00 -1.0000e+00
       23  2    1    2    0    0 +4.3008679277e+01 +2.2950500346e+01 +3.8787428590e+01 1.0034003488e+02 7.8658667822e+01 0.0000e+00 0.0000e+00
       25  2    1    2    0    0 -4.3008679277e+01 -2.2950500346e+01 -3.8787428590e+01 1.3965996512e+02 1.2499587706e+02 0.0000e+00 0.0000e+00
      -13  1    3    3    0    0 +1.9556510279e+01 +3.9751556821e+01 -8.3435421306e+00 4.5080572970e+01 0.0000000000e+00 0.0000e+00 -1.0000e+00
       13  1    3    3    0    0 +2.3452168997e+01 -1.6801056475e+01 +4.7130970721e+01 5.5259461909e+01 0.0000000000e+00 0.0000e+00 1.0000e+00
        5  1    4    4  501    0 -8.5717277684e+00 +2.1653628656e+01 -3.6977197415e+01 4.3951760825e+01 4.7000000000e+00 0.0000e+00 1.0000e+00
       -5  1    4    4    0  502 -7.0872374294e+00 -2.0513150807e+00 +5.5395271919e+00 1.0354380206e+01 4.7000000000e+00 0.0000e+00 1.0000e+00
        5  1    4    4  502    0 -2.0849023031e+01 -3.8810304672e+01 +2.5644830049e+01 5.1192468375e+01 4.7000000000e+00 0.0000e+00 1.0000e+00
       -5  1    4    4    0  501 -6.5006910481e+00 -3.7425092496e+00 -3.2994588416e+01 3.4161355716e+01 4.7000000000e+00 0.0000e+00 1.0000e+00
</event>
<event>
10      1 +4.6527485e-10 2.40000000e+02 7.81860800e-03 1.03012300e-01
      -11 -1    0    0    0    0 +0.0000000000e+00 +0.0000000000e+00 +1.2000000000e+02 1.2000000000e+02 0.0000000000e+00 0.0000e+00 1.0000e+00
       11 -1    0    0    0    0 -0.0000000000e+00 -0.0000000000e+00 -1.2000000000e+02 1.2000000000e+02 0.0000000000e+00 0.0000e+00 -1.0000e+00
       23  2    1    2    0    0 +1.5350250918e+00 +5.2688595804e+01 +9.4282753191e+00 1.0401318521e+02 8.9170656000e+01 0.0000e+00 0.0000e+00
       25  2    1    2    0    0 -1.5350250918e+00 -5.2688595804e+01 -9.4282753191e+00 1.3598681479e+02 1.2500030797e+02 0.0000e+00 0.0000e+00
      -11  1    3    3    0    0 -5.1482571073e+00 +4.5739260379e+01 -3.5458619483e+01 5.8102480041e+01 0.0000000000e+00 0.0000e+00 -1.0000e+00
       11  1    3    3    0    0 +6.6832821991e+00 +6.9493354259e+00 +4.4886894802e+01 4.5910705166e+01 0.0000000000e+00 0.0000e+00 1.0000e+00
        5  1    4    4  501    0 +1.0141510917e+01 -2.5322061916e+01 +4.0548256768e+01 4.9094889656e+01 4.7000000000e+00 0.0000e+00 1.0000e+00
       -5  1    4    4    0  501 +1.1958838452e+01 -8.8342653877e+00 +7.8670067603e+00 1.7465333018e+01 4.7000000000e+00 0.0000e+00 1.0000e+00
        5  1    4    4  502    0 -3.4651607319e+00 +1.6568751922e+00 -2.4712970522e+01 2.5447465224e+01 4.7000000000e+00 0.0000e+00 -1.0000e+00
       -5  1    4    4    0  502 -2.0170213729e+01 -2.0189143693e+01 -3.3130568326e+01 4.3979126896e+01 4.7000000000e+00 0.0000e+00 -1.0000e+00
</event>
<event>
10      1 +4.6527485e-10 2.40000000e+02 7.81860800e-03 1.03012300e-01
      -11 -1    0    0    0    0 +0.0000000000e+00 +0.0000000000e+00 +1.2000000000e+02 1.2000000000e+02 0.0000000000e+00 0.0000e+00 1.0000e+00
       11 -1    0    0    0    0 -0.0000000000e+00 -0.0000000000e+00 -1.2000000000e+02 1.2000000000e+02 0.0000000000e+00 0.0000e+00 -1.0000e+00
       23  2    1    2    0    0 +2.0649399392e+01 +3.5145810706e+01 -4.2053050362e+01 1.0196212392e+02 8.3463704476e+01 0.0000e+00 0.0000e+00
       25  2    1    2    0    0 -2.0649399392e+01 -3.5145810706e+01 +4.2053050362e+01 1.3803787608e+02 1.2499748190e+02 0.0000e+00 0.0000e+00
      -13  1    3    3    0    0 -2.2768925719e+00 +4.5746843154e+01 +7.4328926247e+00 4.6402648535e+01 0.0000000000e+00 0.0000e+00 1.0000e+00
       13  1    3    3    0    0 +2.2926291964e+01 -1.0601032448e+01 -4.9485942986e+01 5.5559475388e+01 0.0000000000e+00 0.0000e+00 -1.0000e+00
        5  1    4    4  501    0 -1.1372608079e+01 +2.5518328918e+00 -3.7499863468e+01 3.9549688061e+01 4.7000000000e+00 0.0000e+00 -1.0000e+00
       -5  1    4    4    0  502 -4.7636770476e+00 -7.5384665822e-01 +2.3729021702e+01 2.4666117950e+01 4.7000000000e+00 0.0000e+00 1.0000e+00
        5  1    4    4  502    0 -4.6112845282e+00 -3.4641857970e+01 +5.8219482394e+01 6.8065559565e+01 4.7000000000e+00 0.0000e+00 1.0000e+00
       -5  1    4    4    0  501 +9.8170262465e-02 -2.3019389694e+00 -2.3955902659e+00 5.7565105004e+00 4.7000000000e+00 0.0000e+00 1.0000e+00
</event>
<event>
10      1 +4.6527485e-10 2.40000000e+02 7.81860800e-03 1.03012300e-01
      -11 -1    0    0    0    0 +0.0000000000e+00 +0.0000000000e+00 +1.2000000000e+02 1.2000000000e+02 0.0000000000e+00 0.0000e+00 1.0000e+00
       11 -1    0    0    0    0 -0.0000000000e+00 -0.0000000000e+00 -1.2000000000e+02 1.2000000000e+02 0.0000000000e+00 0.0000e+00 -1.0000e+00
       23  2    1    2    0    0 -2.9746059202e+01 +3.3642721604e+01 +2.7773891088e+01 1.0430436693e+02 8.9951938160e+01 0.0000e+00 0.0000e+00
       25  2    1    2    0    0 +2.9746059202e+01 -3.3642721604e+01 -2.7773891088e+01 1.3569563307e+02 1.2500102021e+02 0.0000e+00 0.0000e+00
      -13  1    3    3    0    0 +1.0913589819e+01 -1.5154510208e+01 -1.8058394446e+01 2.5978283861e+01 0.0000000000e+00 0.0000e+00 -1.0000e+00
       13  1    3    3    0    0 -4.0659649022e+01 +4.8797231812e+01 +4.5832285534e+01 7.8326083065e+01 0.0000000000e+00 0.0000e+00 1.0000e+00
        5  1    4    4  501    0 +5.1487441754e+01 +2.4877814718e+00 +6.1143894065e+00 5.2121219026e+01 4.7000000000e+00 0.0000e+00 -1.0000e+00
       -5  1    4    4    0  502 -1.6365248421e+01 -6.6713986550e+00 -3.1708610307e+01 3.6604028242e+01 4.7000000000e+00 0.0000e+00 -1.0000e+00
        5  1    4    4  502    0 -6.8866059491e+00 -3.6960437402e+01 -9.0216939524e-01 3.7899910080e+01 4.7000000000e+00 0.0000e+00 -1.0000e+00
       -5  1    4    4    0  501 +1.5104718188e+00 +7.5013329819e+00 -1.2775007925e+00 9.0704757259e+00 4.7000000000e+00 0.0000e+00 1.0000e+00
</event>
<event>
10      1 +4.6527485e-10 2.40000000e+02 7.81860800e-03 1.03012300e-01
      -11 -1    0    0    0    0 +0.0000000000e+00 +0.0000000000e+00 +1.2000000000e+02 1.2000000000e+02 0.0000000000e+00 0.0000e+00 1.0000e+00
       11 -1    0    0    0    0 -0.0000000000e+00 -0.0000000000e+00 -1.2000000000e+02 1.2000000000e+02 0.0000000000e+00 0.0000e+00 -1.0000e+00
       23  2    1    2    0    0 -3.9381437352e+01 +3.2089011349e+01 -1.2607256038e+01 1.0448613264e+02 9.0431226637e+01 0.0000e+00 0.0000e+00
       25  2    1    2    0    0 +3.9381437352e+01 -3.2089011349e+01 +1.2607256038e+01 1.3551386736e+02 1.2499785233e+02 0.0000e+00 0.0000e+00
      -11  1    3    3    0    0 -3.4704225308e+01 +5.0270406104e+00 +3.4987901341e+01 4.9535922639e+01 0.0000000000e+00 0.0000e+00 1.0000e+00
       11  1    3    3    0    0 -4.6772120439e+00 +2.7061970739e+01 -4.7595157378e+01 5.4950209996e+01 0.0000000000e+00 0.0000e+00 -1.0000e+00
        5  1    4    4  501    0 -6.1449783213e+00 -3.1110085827e+00 +8.2205053814e+00 1.1709220371e+01 4.7000000000e+00 0.0000e+00 -1.0000e+00
       -5  1    4    4    0  502 +3.5888775163e+01 -9.6022065288e+00 -1.2852534610e+01 3.9591466238e+01 4.7000000000e+00 0.0000e+00 1.0000e+00
        5  1    4    4  502    0 +2.2802316114e+01 -3.6370283017e+01 -1.4534146209e+01 4.5563960681e+01 4.7000000000e+00 0.0000e+00 1.0000e+00
       -5  1    4    4    0  501 -1.3164675604e+01 +1.6994486780e+01 +3.1773431475e+01 3.8649220075e+01 4.7000000000e+00 0.0000e+00 -1.0000e+00
</event>
<event>
10      1 +4.6527485e-10 2.40000000e+02 7.81860800e-03 1.03012300e-01
      -11 -1    0    0    0    0 +0.0000000000e+00 +0.0000000000e+00 +1.2000000000e+02 1.2000000000e+02 0.0000000000e+00 0.0000e+00 1.0000e+00
       11 -1    0    0    0    0 -0.0000000000e+00 -0.0000000000e+00 -1.2000000000e+02 1.2000000000e+02 0.0000000000e+00 0.0000e+00 -1.0000e+00
       23  2    1    2    0    0 -4.8678150008e+00 +1.4947416737e+01 -5.7689338874e+01 1.0143518177e+02 8.1938485402e+01 0.0000e+00 0.0000e+00
       25  2    1    2    0    0 +4.8678150008e+00 -1.4947416737e+01 +5.7689338874e+01 1.3856481823e+02 1.2500011257e+02 0.0000e+00 0.0000e+00
      -11  1    3    3    0    0 +3.3308595323e+01 -9.8850745135e+00 -3.8932717914e+01 5.2181737655e+01 0.0000000000e+00 0.0000e+00 -1.0000e+00
       11  1    3    3    0    0 -3.8176410323e+01 +2.4832491250e+01 -1.8756620959e+01 4.9253444110e+01 0.0000000000e+00 0.0000e+00 1.0000e+00
        5  1    4    4  501    0 +1.0360038314e+01 +2.2826966689e+00 -2.7367269967e+01 2.9725385841e+01 4.7000000000e+00 0.0000e+00 1.0000e+00
       -5  1    4    4    0  501 -8.6974584115e+00 -4.0015276559e+00 -7.4923281566e+00 1.3033916818e+01 4.7000000000e+00 0.0000e+00 1.0000e+00
        5  1    4    4  502    0 +9.4910773312e+00 -1.5696043773e+00 +3.9035869991e+01 4.0477566043e+01 4.7000000000e+00 0.0000e+00 1.0000e+00
       -5  1    4    4    0  502 -6.2858422330e+00 -1.1658981372e+01 +5.3513067006e+01 5.5327949534e+01 4.7000000000e+00 0.0000e+00 1.0000e+00
</event>
<event>
10      1 +4.6527485e-10 2.40000000e+02 7.81860800e-03 1.03012300e-01
      -11 -1    0    0    0    0 +0.0000000000e+00 +0.0000000000e+00 +1.2000000000e+02 1.2000000000e+02 0.0000000000e+00 0.0000e+00 1.0000e+00
       11 -1    0    0    0    0 -0.0000000000e+00 -0.0000000000e+00 -1.2000000000e+02 1.2000000000e+02 0.0000000000e+00 0.0000e+00 -1.0000e+00
       23  2    1    2    0    0 -1.1712724580e+01 -4.9067886978e+01 -2.9377258491e+00 1.0517580815e+02 9.2241394919e+01 0.0000e+00 0.0000e+00
       25  2    1    2    0    0 +1.1712724580e+01 +4.9067886978e+01 +2.9377258491e+00 1.3482419185e+02 1.2499634805e+02 0.0000e+00 0.0000e+00
      -13  1    3    3    0    0 +3.2787893823e+01 -2.8134779702e+01 +2.3667460397e+01 4.9262160853e+01 0.0000000000e+00 0.0000e+00 -1.0000e+00
       13  1    3    3    0    0 -4.4500618403e+01 -2.0933107276e+01 -2.6605186247e+01 5.5913647294e+01 0.0000000000e+00 0.0000e+00 1.0000e+00
        5  1    4    4  501    0 -4.5340376047e+00 +1.0659342805e+01 +4.9515747558e+00 1.3445712276e+01 4.7000000000e+00 0.0000e+00 -1.0000e+00
       -5  1    4    4    0  502 +1.8325367153e+01 +1.8511917687e+00 +5.0502021162e+01 5.3961005677e+01 4.7000000000e+00 0.0000e+00 -1.0000e+00
        5  1    4    4  502    0 +4.5732064740e+00 +2.8216974993e+01 -4.5095725884e+01 5.3598753607e+01 4.7000000000e+00 0.0000e+00 1.0000e+00
       -5  1    4    4    0  501 -6.6518114427e+00 +8.3403774112e+00 -7.4201441842e+00 1.3818720293e+01 4.7000000000e+00 0.0000e+00 1.0000e+00
</event>
<event>
10      1 +4.6527485e-10 2.40000000e+02 7.81860800e-03 1.03012300e-01
      -11 -1    0    0    0    0 +0.0000000000e+00 +0.0000000000e+00 +1.2000000000e+02 1.2000000000e+02 0.0000000000e+00 0.0000e+00 1.0000e+00
       11 -1    0    0    0    0 -0.0000000000e+00 -0.0000000000e+00 -1.2000000000e+02 1.2000000000e+02 0.0000000000e+00 0.0000e+00 -1.0000e+00
       23  2    1    2    0    0 +1.3848654209e+01 -4.4502743075e+01 -2.1283737970e+01 1.0490651728e+02 9.1542888859e+01 0.0000e+00 0.0000e+00
       25  2    1    2    0    0 -1.3848654209e+01 +4.4502743075e+01 +2.1283737970e+01 1.3509348272e+02 1.2499988883e+02 0.0000e+00 0.0000e+00
      -13  1    3    3    0    0 +4.7580769662e+01 -2.6402792352e+00 -1.6846256266e+00 4.7683736007e+01 0.0000000000e+00 0.0000e+00 1.0000e+00
       13  1    3    3    0    0 -3.3732115453e+01 -4.1862463840e+01 -1.9599112343e+01 5.7222781270e+01 0.0000000000e+00 0.0000e+00 -1.0000e+00
        5  1    4    4  501    0 -8.0793616990e+00 +4.4543154979e+01 +1.4344757205e+01 4.7720339482e+01 4.7000000000e+00 0.0000e+00 -1.0000e+00
       -5  1    4    4    0  501 -2.0848404778e+01 +3.1192270964e+01 +6.9197741800e+00 3.8439394173e+01 4.7000000000e+00 0.0000e+00 -1.0000e+00
        5  1    4    4  502    0 -8.9027913137e+00 -1.4466573320e+01 +6.1552806738e+00 1.8668661360e+01 4.7000000000e+00 0.0000e+00 1.0000e+00
       -5  1    4    4    0  502 +2.3981903581e+01 -1.6766109549e+01 -6.1360740890e+00 3.0265087708e+01 4.7000000000e+00 0.0000e+00 1.0000e+00
</event>
<event>
10      1 +4.6527485e-10 2.40000000e+02 7.81860800e-03 1.03012300e-01
      -11 -1    0    0    0    0 +0.0000000000e+00 +0.0000000000e+00 +1.2000000000e+02 1.2000000000e+02 0.0000000000e+00 0.0000e+00 1.0000e+00
       11 -1    0    0    0    0 -0.0000000000e+00 -0.0000000000e+00 -1.2000000000e+02 1.2000000000e+02 0.0000000000e+00 0.0000e+00 -1.0000e+00
       23  2    1    2    0    0 +2.3168383646e+01 +2.9728506976e+01 +3.0416831544e+01 1.0594736686e+02 9.4228991167e+01 0.0000e+00 0.0000e+00
       25  2    1    2    0    0 -2.3168383646e+01 -2.9728506976e+01 -3.0416831544e+01 1.3405263314e+02 1.2499746670e+02 0.0000e+00 0.0000e+00
      -11  1    3    3    0    0 +4.7773392817e+01 +1.0755212219e+01 +4.9382423341e+01 6.9545635278e+01 0.0000000000e+00 0.0000e+00 1.0000e+00
       11  1    3    3    0    0 -2.4605009171e+01 +1.8973294757e+01 -1.8965591797e+01 3.6401731586e+01 0.0000000000e+00 0.0000e+00 -1.0000e+00
        5  1    4    4  501    0 -2.6420437136e+01 -7.4974547910e-01 +2.2292746049e+01 3.4894958707e+01 4.7000000000e+00 0.0000e+00 -1.0000e+00
       -5  1    4    4    0  502 +2.4158362170e+01 -1.0636413249e+01 -3.5001204048e+01 4.4090067298e+01 4.7000000000e+00 0.0000e+00 1.0000e+00
        5  1    4    4  502    0 +4.7705517816e+00 -1.7059032501e+01 -2.1945547699e+01 2.8591359149e+01 4.7000000000e+00 0.0000e+00 1.0000e+00
       -5  1    4    4    0  501 -2.5676860462e+01 -1.2833157472e+00 +4.2371741532e+00 2.6476247983e+01 4.7000000000e+00 0.0000e+00 -1.0000e+00
</event>
<event>
10      1 +4.6527485e-10 2.40000000e+02 7.81860800e-03 1.03012300e-01
      -11 -1    0    0    0    0 +0.0000000000e+00 +0.0000000000e+00 +1.2000000000e+02 1.2000000000e+02 0.0000000000e+00 0.0000e+00 1.0000e+00
       11 -1    0    0    0    0 -0.0000000000e+00 -0.0000000000e+00 -1.2000000000e+02 1.2000000000e+02 0.0000000000e+00 0.0000e+00 -1.0000e+00
       23  2    1    2    0    0 -1.5839776462e+00 -4.9072171601e+01 +1.4657730309e+01 1.0490834590e+02 9.1544114895e+01 0.0000e+00 0.0000e+00
       25  2    1    2    0    0 +1.5839776462e+00 +4.9072171601e+01 -1.4657730309e+01 1.3509165410e+02 1.2499727572e+02 0.0000e+00 0.0000e+00
      -13  1    3    3    0    0 +2.9952739601e+01 +1.3932973026e+01 +4.7647960338e-01 3.3038180636e+01 0.0000000000e+00 0.0000e+00 -1.0000e+00
       13  1    3    3    0    0 -3.1536717247e+01 -6.3005144627e+01 +1.4181250705e+01 7.1870165269e+01 0.0000000000e+00 0.0000e+00 1.0000e+00
        5  1    4    4  501    0 +6.5473719179e+00 +8.0005411469e+00 -2.4836613286e+01 2.7309780248e+01 4.7000000000e+00 0.0000e+00 1.0000e+00
       -5  1    4    4    0  502 -2.6811912120e+01 +2.8186814298e+01 +3.9452889559e+01 5.5605715771e+01 4.7000000000e+00 0.0000e+00 1.0000e+00
        5  1    4    4  502    0 +2.9673283001e+00 +2.2417754259e+00 +7.2742613920e+00 9.4252571901e+00 4.7000000000e+00 0.0000e+00 1.0000e+00
       -5  1    4    4    0  501 +1.8881189549e+01 +1.0643040730e+01 -3.6548267973e+01 4.2750900886e+01 4.7000000000e+00 0.0000e+00 1.0000e+00
</event>
<event>
10      1 +4.6527485e-10 2.40000000e+02 7.81860800e-03 1.03012300e-01
      -11 -1    0    0    0    0 +0.0000000000e+00 +0.0000000000e+00 +1.2000000000e+02 1.2000000000e+02 0.0000000000e+00 0.0000e+00 1.0000e+00
       11 -1    0    0    0    0 -0.0000000000e+00 -0.0000000000e+00 -1.2000000000e+02 1.2000000000e+02 0.0000000000e+00 0.0000e+00 -1.0000e+00
       23  2    1    2    0    0 +3.4680381949e+01 -3.7500418496e+00 +2.2848194545e+01 1.0823321507e+02 9.9877911192e+01 0.0000e+00 0.0000e+00
       25  2    1    2    0    0 -3.4680381949e+01 +3.7500418496e+00 -2.2848194545e+01 1.3176678493e+02 1.2499461553e+02 0.0000e+00 0.0000e+00
      -13  1    3    3    0    0 -1.5408458110e+00 -2.7651300740e+01 -2.9348916692e+01 4.0352540805e+01 0.0000000000e+00 0.0000e+00 -1.0000e+00
       13  1    3    3    0    0 +3.6221227760e+01 +2.3901258890e+01 +5.2197111237e+01 6.7880674263e+01 0.0000000000e+00 0.0000e+00 1.0000e+00
        5  1    4    4  501    0 -2.9135624420e+01 -5.6336958351e+00 +1.4248853539e+01 3.3252713668e+01 4.7000000000e+00 0.0000e+00 -1.0000e+00
       -5  1    4    4    0  501 -2.1009845537e+01 +2.8955749512e+01 +1.1423668300e+01 3.7847579007e+01 4.7000000000e+00 0.0000e+00 -1.0000e+00
        5  1    4    4  502    0 +4.8181613997e+00 -1.3186555023e+01 -5.7489719664e+00 1.5882083973e+01 4.7000000000e+00 0.0000e+00 -1.0000e+00
       -5  1    4    4    0  502 +1.0646926609e+01 -6.3854568039e+00 -4.2771744418e+01 4.4784408284e+01 4.7000000000e+00 0.0000e+00 -1.0000e+00
</event>
<event>
10      1 +4.6527485e-10 2.40000000e+02 7.81860800e-03 1.03012300e-01
      -11 -1    0    0    0    0 +0.0000000000e+00 +0.0000000000e+00 +1.2000000000e+02 1.2000000000e+02 0.0000000000e+00 0.0000e+00 1.0000e+00
       11 -1    0    0    0    0 -0.0000000000e+00 -0.0000000000e+00 -1.2000000000e+02 1.2000000000e+02 0.0000000000e+00 0.0000e+00 -1.0000e+00
       23  2    1    2    0    0 -5.4609599257e+00 +1.0546095398e+01 +4.9351405100e+01 1.0508843316e+02 9.2016169163e+01 0.0000e+00 0.0000e+00
       25  2    1    2    0    0 +5.4609599257e+00 -1.0546095398e+01 -4.9351405100e+01 1.3491156684e+02 1.2499810987e+02 0.0000e+00 0.0000e+00
      -13  1    3    3    0    0 +2.6993831788e+01 +1.7157607673e+01 +6.1895348067e+01 6.9671260703e+01 0.0000000000e+00 0.0000e+00 1.0000e+00
       13  1    3    3    0    0 -3.2454791714e+01 -6.6115122755e+00 -1.2543942967e+01 3.5417172458e+01 0.0000000000e+00 0.0000e+00 -1.0000e+00
        5  1    4    4  501    0 +1.2311962539e+01 -8.5547919739e+00 -3.0325773553e+01 3.4154230029e+01 4.7000000000e+00 0.0000e+00 1.0000e+00
       -5  1    4    4    0  501 -1.8248352255e+00 -3.0273229158e+01 -4.6336141387e+01 5.5578111032e+01 4.7000000000e+00 0.0000e+00 1.0000e+00
        5  1    4    4  502    0 -5.8284660676e+00 +2.0892805626e+01 +7.3698270570e+00 2.3385565943e+01 4.7000000000e+00 0.0000e+00 -1.0000e+00
       -5  1    4    4    0  502 +8.0229868008e-01 +7.3891201083e+00 +1.9940682783e+01 2.1793659835e+01 4.7000000000e+00 0.0000e+00 -1.0000e+00
</event>
<event>
10      1 +4.6527485e-10 2.40000000e+02 7.81860800e-03 1.03012300e-01
      -11 -1    0    0    0    0 +0.0000000000e+00 +0.0000000000e+00 +1.2000000000e+02 1.2000000000e+02 0.0000000000e+00 0.0000e+00 -1.0000e+00
       11 -1    0    0    0    0 -0.0000000000e+00 -0.0000000000e+00 -1.2000000000e+02 1.2000000000e+02 0.0000000000e+00 0.0000e+00 1.0000e+00
       23  2    1    2    0    0 +2.6278154932e+01 -3.2036479523e+00 -4.3575668314e+01 1.0500194754e+02 9.1791967688e+01 0.0000e+00 0.0000e+00
       25  2    1    2    0    0 -2.6278154932e+01 +3.2036479523e+00 +4.3575668314e+01 1.3499805246e+02 1.2499932204e+02 0.0000e+00 0.0000e+00
      -11  1    3    3    0    0 +3.0174392453e+01 -1.8465010190e+01 -6.7587097501e+01 7.6285426588e+01 0.0000000000e+00 0.0000e+00 1.0000e+00
       11  1    3    3    0    0 -3.8962375212e+00 +1.5261362237e+01 +2.4011429186e+01 2.8716520955e+01 0.0000000000e+00 0.0000e+00 -1.0000e+00
        5  1    4    4  501    0 -1.3418332607e+01 -2.7346263167e+00 -7.2055731996e+00 1.6172201958e+01 4.7000000000e+00 0.0000e+00 -1.0000e+00
       -5  1    4    4    0  501 -2.6250929959e+01 -3.6680973708e+01 -3.4106644350e+00 4.5478871883e+01 4.7000000000e+00 0.0000e+00 -1.0000e+00
        5  1    4    4  502    0 +8.7781594382e+00 +3.9642759578e+01 +3.8866321318e+01 5.6402884704e+01 4.7000000000e+00 0.0000e+00 -1.0000e+00
       -5  1    4    4    0  502 +4.6129481953e+00 +2.9764883995e+00 +1.5325584630e+01 1.6944093912e+01 4.7000000000e+00 0.0000e+00 -1.0000e+00
</event>
<event>
10      1 +4.6527485e-10 2.40000000e+02 7.81860800e-03 1.03012300e-01
      -11 -1    0    0    0    0 +0.0000000000e+00 +0.0000000000e+00 +1.2000000000e+02 1.2000000000e+02 0.0000000000e+00 0.0000e+00 1.0000e+00
       11 -1    0    0    0    0 -0.0000000000e+00 -0.0000000000e+00 -1.2000000000e+02 1.2000000000e+02 0.0000000000e+00 0.0000e+00 -1.0000e+00
       23  2    1    2    0    0 -1.6532025636e+01 -4.8818278866e+01 +1.5290772454e+01 1.0392879285e+02 8.8942981949e+01 0.0000e+00 0.0000e+00
       25  2    1    2    0    0 +1.6532025636e+01 +4.8818278866e+01 -1.5290772454e+01 1.3607120715e+02 1.2500013388e+02 0.0000e+00 0.0000e+00
      -13  1    3    3    0    0 -2.4246007727e+01 +1.9606416307e+01 +1.6043113227e+01 3.5066535802e+01 0.0000000000e+00 0.0000e+00 1.0000e+00
       13  1    3    3    0    0 +7.7139820916e+00 -6.8424695173e+01 -7.5234077272e-01 6.8862257049e+01 0.0000000000e+00 0.0000e+00 -1.0000e+00
        5  1    4    4  501    0 -3.6218976433e+00 -4.0465458583e+00 -1.3879316300e+01 1.5627478904e+01 4.7000000000e+00 0.0000e+00 -1.0000e+00
       -5  1    4    4    0  502 -7.9218964470e+00 -2.3665977900e+00 +2.0680191186e+01 2.2762195323e+01 4.7000000000e+00 0.0000e+00 -1.0000e+00
        5  1    4    4  502    0 -1.9294433283e+01 +6.8569734299e+00 +9.2141061926e+00 2.2940858599e+01 4.7000000000e+00 0.0000e+00 -1.0000e+00
       -5  1    4    4    0  501 +4.7370253009e+01 +4.8374449084e+01 -3.1305753532e+01 7.4740674325e+01 4.7000000000e+00 0.0000e+00 -1.0000e+00
</event>
<event>
10      1 +4.6527485e-10 2.40000000e+02 7.81860800e-03 1.03012300e-01
      -11 -1    0    0    0    0 +0.0000000000e+00 +0.0000000000e+00 +1.2000000000e+02 1.2000000000e+02 0.0000000000e+00 0.0000e+00 -1.0000e+00
       11 -1    0    0    0    0 -0.0000000000e+00 -0.0000000000e+00 -1.2000000000e+02 1.2000000000e+02 0.0000000000e+00 0.0000e+00 1.0000e+00
       23  2    1    2    0    0 -2.2653584612e+01 -3.9184486122e+01 +1.6089896467e+01 1.0608177934e+02 9.4582505212e+01 0.0000e+00 0.0000e+00
       25  2    1    2    0    0 +2.2653584612e+01 +3.9184486122e+01 -1.6089896467e+01 1.3391822066e+02 1.2500638466e+02 0.0000e+00 0.0000e+00
      -13  1    3    3    0    0 +8.3598798595e+00 -3.7707769485e+01 -3.1103878195e+01 4.9590469947e+01 0.0000000000e+00 0.0000e+00 1.0000e+00
       13  1    3    3    0    0 -3.1013464472e+01 -1.4767166370e+00 +4.7193774662e+01 5.6491309397e+01 0.0000000000e+00 0.0000e+00 -1.0000e+00
        5  1    4    4  501    0 -1.6761035956e+01 -1.8559484212e+01 +1.1149209360e+01 2.7780958404e+01 4.7000000000e+00 0.0000e+00 1.0000e+00
       -5  1    4    4    0  501 -1.6395064107e+01 -1.6113712487e+00 -1.7459709210e+00 1.7220135273e+01 4.7000000000e+00 0.0000e+00 -1.0000e+00
        5  1    4    4  502    0 +5.5134182727e+01 +5.1585824595e+01 -1.9873901487e+01 7.8217244674e+01 4.7000000000e+00 0.0000e+00 -1.0000e+00
       -5  1    4    4    0  502 +6.7550194789e-01 +7.7695169877e+00 -5.6192334183e+00 1.0699882304e+01 4.7000000000e+00 0.0000e+00 1.0000e+00
</event>
<event>
10      1 +4.6527485e-10 2.40000000e+02 7.81860800e-03 1.03012300e-01
      -11 -1    0    0    0    0 +0.0000000000e+00 +0.0000000000e+00 +1.2000000000e+02 1.2000000000e+02 0.0000000000e+00 0.0000e+00 -1.0000e+00
       11 -1    0    0    0    0 -0.0000000000e+00 -0.0000000000e+00 -1.2000000000e+02 1.2000000000e+02 0.0000000000e+00 0.0000e+00 1.0000e+00
       23  2    1    2    0    0 +3.4055143355e+01 -3.5887528947e+01 -2.0277174744e+01 1.0407193686e+02 8.9286822676e+01 0.0000e+00 0.0000e+00
       25  2    1    2    0    0 -3.4055143355e+01 +3.5887528947e+01 +2.0277174744e+01 1.3592806314e+02 1.2497042454e+02 0.0000e+00 0.0000e+00
      -11  1    3    3    0    0 -9.1060895239e+00 -5.2272894769e+01 -2.2987603010e+01 5.7825654221e+01 0.0000000000e+00 0.0000e+00 1.0000e+00
       11  1    3    3    0    0 +4.3161232879e+01 +1.6385365822e+01 +2.7104282656e+00 4.6246282641e+01 0.0000000000e+00 0.0000e+00 -1.0000e+00
        5  1    4    4  501    0 -5.7425349754e+00 +4.0623900460e+01 +1.3679525531e+01 4.3502843761e+01 4.7000000000e+00 0.0000e+00 1.0000e+00
       -5  1    4    4    0  501 +1.4940022169e+01 +2.6406920830e+01 +1.3379451262e+01 3.3490736723e+01 4.7000000000e+00 0.0000e+00 1.0000e+00
        5  1    4    4  502    0 -2.8324839685e+01 -3.1732339843e+01 -3.5316165693e+00 4.2939495231e+01 4.7000000000e+00 0.0000e+00 -1.0000e+00
       -5  1    4    4    0  502 -1.4927790864e+01 +5.8904750023e-01 -3.2501854800e+00 1.5994987424e+01 4.7000000000e+00 0.0000e+00 1.0000e+00
</event>
<event>
10      1 +4.6527485e-10 2.40000000e+02 7.81860800e-03 1.03012300e-01
      -11 -1    0    0    0    0 +0.0000000000e+00 +0.0000000000e+00 +1.2000000000e+02 1.2000000000e+02 0.0000000000e+00 0.0000e+00 -1.0000e+00
       11 -1    0    0    0    0 -0.0000000000e+00 -0.0000000000e+00 -1.2000000000e+02 1.2000000000e+02 0.0000000000e+00 0.0000e+00 1.0000e+00
       23  2    1    2    0    0 -2.1417511200e+01 +3.3972893970e+01 -3.1252037264e+01 1.0504078810e+02 9.1891294587e+01 0.0000e+00 0.0000e+00
       25  2    1    2    0    0 +2.1417511200e+01 -3.3972893970e+01 +3.1252037264e+01 1.3495921190e+02 1.2499772691e+02 0.0000e+00 0.0000e+00
      -11  1    3    3    0    0 -8.6954261765e+00 +5.0084153012e+01 +1.6188715721e+01 5.3348920664e+01 0.0000000000e+00 0.0000e+00 -1.0000e+00
       11  1    3    3    0    0 -1.2722085024e+01 -1.6111259042e+01 -4.7440752985e+01 5.1691867436e+01 0.0000000000e+00 0.0000e+00 1.0000e+00
        5  1    4    4  501    0 -3.4512270699e+01 -1.5240012445e+01 +1.0652503190e+01 3.9483168975e+01 4.7000000000e+00 0.0000e+00 -1.0000e+00
       -5  1    4    4    0  501 -7.3466250429e+00 -1.3675547832e+01 +1.1083915576e+01 1.9645271505e+01 4.7000000000e+00 0.0000e+00 -1.0000e+00
        5  1    4    4  502    0 +1.5633825411e+01 +1.9610428152e-01 -1.4660103024e+01 2.1942278245e+01 4.7000000000e+00 0.0000e+00 1.0000e+00
       -5  1    4    4    0  502 +4.7642581531e+01 -5.2534379745e+00 +2.4175721523e+01 5.3888493174e+01 4.7000000000e+00 0.0000e+00 1.0000e+00
</event>
<event>
10      1 +4.6527485e-10 2.40000000e+02 7.81860800e-03 1.03012300e-01
      -11 -1    0    0    0    0 +0.0000000000e+00 +0.0000000000e+00 +1.2000000000e+02 1.2000000000e+02 0.0000000000e+00 0.0000e+00 -1.0000e+00
       11 -1    0    0    0    0 -0.0000000000e+00 -0.0000000000e+00 -1.2000000000e+02 1.2000000000e+02 0.0000000000e+00 0.0000e+00 1.0000e+00
       23  2    1    2    0    0 +2.8439644842e+01 +1.2547081630e+01 -4.4043485365e+01 1.0386993472e+02 8.8785652444e+01 0.0000e+00 0.0000e+00
       25  2    1    2    0    0 -2.8439644842e+01 -1.2547081630e+01 +4.4043485365e+01 1.3613006528e+02 1.2500129365e+02 0.0000e+00 0.0000e+00
      -13  1    3    3    0    0 +5.7128134837e+00 -3.1404140838e+01 -4.4039361707e+01 5.4390455773e+01 0.0000000000e+00 0.0000e+00 -1.0000e+00
       13  1    3    3    0    0 +2.2726831358e+01 +4.3951222468e+01 -4.1236581516e-03 4.9479478948e+01 0.0000000000e+00 0.0000e+00 1.0000e+00
        5  1    4    4  501    0 -2.2786419092e+00 -1.4608049923e+01 -1.2066408829e+01 1.9653894106e+01 4.7000000000e+00 0.0000e+00 -1.0000e+00
       -5  1    4    4    0  501 -1.7091652813e+00 -3.6670550130e+01 -1.1216918012e+00 3.7026999410e+01 4.7000000000e+00 0.0000e+00 -1.0000e+00
        5  1    4    4  502    0 +4.0567535999e+00 +6.3132349349e+00 +2.1364305823e+01 2.3126559372e+01 4.7000000000e+00 0.0000e+00 -1.0000e+00
       -5  1    4    4    0  502 -2.8508591251e+01 +3.2418283488e+01 +3.5867280173e+01 5.6322612390e+01 4.7000000000e+00 0.0000e+00 -1.0000e+00
</event>
<event>
10      1 +4.6527485e-10 2.40000000e+02 7.81860800e-03 1.03012300e-01
      -11 -1    0    0    0    0 +0.0000000000e+00 +0.0000000000e+00 +1.2000000000e+02 1.2000000000e+02 0.0000000000e+00 0.0000e+00 -1.0000e+00
       11 -1    0    0    0    0 -0.0000000000e+00 -0.0000000000e+00 -1.2000000000e+02 1.2000000000e+02 0.0000000000e+00 0.0000e+00 1.0000e+00
       23  2    1    2    0    0 +4.2849154844e+01 +1.6129284794e+01 +2.6616294103e+01 1.0424104318e+02 8.9786213158e+01 0.0000e+00 0.0000e+00
       25  2    1    2    0    0 -4.2849154844e+01 -1.6129284794e+01 -2.6616294103e+01 1.3575895682e+02 1.2500345333e+02 0.0000e+00 0.0000e+00
      -11  1    3    3    0    0 +2.0340406655e+01 +2.2682994162e+01 -3.0126009343e+01 4.2846549522e+01 0.0000000000e+00 0.0000e+00 1.0000e+00
       11  1    3    3    0    0 +2.2508748188e+01 -6.5537093673e+00 +5.6742303446e+01 6.1394493661e+01 0.0000000000e+00 0.0000e+00 -1.0000e+00
        5  1    4    4  501    0 -5.3540536035e+01 +2.9113758603e+01 +1.3720339052e+01 6.2646130308e+01 4.7000000000e+00 0.0000e+00 1.0000e+00
       -5  1    4    4    0  502 +1.5703646297e+01 -3.3878286682e+01 -2.7052310489e+01 4.6349329211e+01 4.7000000000e+00 0.0000e+00 1.0000e+00
        5  1    4    4  502    0 -2.6162177464e+00 -1.0753919475e+01 -1.6603975192e+01 2.0500570030e+01 4.7000000000e+00 0.0000e+00 1.0000e+00
       -5  1    4    4    0  501 -2.3960473589e+00 -6.1083724008e-01 +3.3196525250e+00 6.2629272682e+00 4.7000000000e+00 0.0000e+00 1.0000e+00
</event>
<event>
10      1 +4.6527485e-10 2.40000000e+02 7.81860800e-03 1.03012300e-01
      -11 -1    0    0    0    0 +0.0000000000e+00 +0.0000000000e+00 +1.2000000000e+02 1.2000000000e+02 0.0000000000e+00 0.0000e+00 -1.0000e+00
       11 -1    0    0    0    0 -0.0000000000e+00 -0.0000000000e+00 -1.2000000000e+02 1.2000000000e+02 0.0000000000e+00 0.0000e+00 1.0000e+00
       23  2    1    2    0    0 -1.4644581128e+01 +3.2503163428e+01 +3.6848688384e+01 1.0489377527e+02 9.1509337585e+01 0.0000e+00 0.0000e+00
       25  2    1    2    0    0 +1.4644581128e+01 -3.2503163428e+01 -3.6848688384e+01 1.3510622473e+02 1.2499978694e+02 0.0000e+00 0.0000e+00
      -11  1    3    3    0    0 -1.1616715859e+01 -2.3257862055e+01 +4.1377893377e+01 4.8867231302e+01 0.0000000000e+00 0.0000e+00 -1.0000e+00
       11  1    3    3    0    0 -3.0278652692e+00 +5.5761025484e+01 -4.5292049934e+00 5.6026543968e+01 0.0000000000e+00 0.0000e+00 1.0000e+00
        5  1    4    4  501    0 +5.1965020123e+00 +7.6234101106e+00 -1.1506820105e+01 1.5479564717e+01 4.7000000000e+00 0.0000e+00 1.0000e+00
       -5  1    4    4    0  501 +4.8481518908e+01 -3.8508555066e+01 -3.9838556544e+01 7.3773756014e+01 4.7000000000e+00 0.0000e+00 1.0000e+00
        5  1    4    4  502    0 -1.8929260012e+00 +2.8230765557e+00 +2.0629803783e+00 6.1562015989e+00 4.7000000000e+00 0.0000e+00 1.0000e+00
       -5  1    4    4    0  502 -3.7140513791e+01 -4.4410950288e+00 +1.2433707888e+01 3.9696702401e+01 4.7000000000e+00 0.0000e+00 1.0000e+00
</event>
<event>
10      1 +4.6527485e-10 2.40000000e+02 7.81860800e-03 1.03012300e-01
      -11 -1    0    0    0    0 +0.0000000000e+00 +0.0000000000e+00 +1.2000000000e+02 1.2000000000e+02 0.0000000000e+00 0.0000e+00 -1.0000e+00
       11 -1    0    0    0    0 -0.0000000000e+00 -0.0000000000e+00 -1.2000000000e+02 1.2000000000e+02 0.0000000000e+00 0.0000e+00 1.0000e+00
       23  2    1    2    0    0 +3.2416870195e+01 +2.8139452483e+00 +3.9913554515e+01 1.0481391590e+02 9.1291255721e+01 0.0000e+00 0.0000e+00
       25  2    1    2    0    0 -3.2416870195e+01 -2.8139452483e+00 -3.9913554515e+01 1.3518608410e+02 1.2499365480e+02 0.0000e+00 0.0000e+00
      -11  1    3    3    0    0 +3.1904981050e+01 -3.8520502668e+01 +4.2140882819e+00 5.0194775441e+01 0.0000000000e+00 0.0000e+00 1.0000e+00
       11  1    3    3    0    0 +5.1188914576e-01 +4.1334447916e+01 +3.5699466233e+01 5.4619140458e+01 0.0000000000e+00 0.0000e+00 -1.0000e+00
        5  1    4    4  501    0 -1.0816494002e+01 -1.0147124351e+01 -2.2156186144e+01 2.7072998717e+01 4.7000000000e+00 0.0000e+00 -1.0000e+00
       -5  1    4    4    0  501 +7.8984542223e+00 -1.4405331690e+01 -3.8244702323e+01 4.1888499806e+01 4.7000000000e+00 0.0000e+00 -1.0000e+00
        5  1    4    4  502    0 -3.7302695460e+01 +2.2377555449e+01 -4.4756969038e-02 4.3753149368e+01 4.7000000000e+00 0.0000e+00 1.0000e+00
       -5  1    4    4    0  502 +7.8038650449e+00 -6.3904465672e-01 +2.0532090921e+01 2.2471436209e+01 4.7000000000e+00 0.0000e+00 1.0000e+00
</event>
<event>
10      1 +4.6527485e-10 2.40000000e+02 7.81860800e-03 1.03012300e-01
      -11 -1    0    0    0    0 +0.0000000000e+00 +0.0000000000e+00 +1.2000000000e+02 1.2000000000e+02 0.0000000000e+00 0.0000e+00 1.0000e+00
       11 -1    0    0    0    0 -0.0000000000e+00 -0.0000000000e+00 -1.2000000000e+02 1.2000000000e+02 0.0000000000e+00 0.0000e+00 -1.0000e+00
       23  2    1    2    0    0 +3.5950286784e+01 +2.6238402420e+01 -2.2806904716e+01 1.0536555947e+02 9.2740871996e+01 0.0000e+00 0.0000e+00
       25  2    1    2    0    0 -3.5950286784e+01 -2.6238402420e+01 +2.2806904716e+01 1.3463444053e+02 1.2500160316e+02 0.0000e+00 0.0000e+00
      -13  1    3    3    0    0 -1.1882442592e+00 +4.6398380456e+00 -5.2769799601e+01 5.2986713159e+01 0.0000000000e+00 0.0000e+00 -1.0000e+00
       13  1    3    3    0    0 +3.7138531043e+01 +2.1598564375e+01 +2.9962894885e+01 5.2378846312e+01 0.0000000000e+00 0.0000e+00 1.0000e+00
        5  1    4    4  501    0 -4.9663932562e+00 +2.1504364080e+01 +1.3330041507e+01 2.6208447933e+01 4.7000000000e+00 0.0000e+00 1.0000e+00
       -5  1    4    4    0  501 -4.5482138438e+01 +6.1737329275e+00 -4.7827885103e+00 4.6386473902e+01 4.7000000000e+00 0.0000e+00 1.0000e+00
        5  1    4    4  502    0 +1.7143324532e+01 -2.5880433589e+01 +3.7667670128e+00 3.1622285693e+01 4.7000000000e+00 0.0000e+00 -1.0000e+00
       -5  1    4    4    0  502 -2.6450796220e+00 -2.8036065840e+01 +1.0492884706e+01 3.0417233001e+01 4.7000000000e+00 0.0000e+00 -1.0000e+00
</event>
<event>
10      1 +4.6527485e-10 2.40000000e+02 7.81860800e-03 1.03012300e-01
      -11 -1    0    0    0    0 +0.0000000000e+00 +0.0000000000e+00 +1.2000000000e+02 1.2000000000e+02 0.0000000000e+00 0.0000e+00 -1.0000e+00
       11 -1    0    0    0    0 -0.0000000000e+00 -0.0000000000e+00 -1.2000000000e+02 1.2000000000e+02 0.0000000000e+00 0.0000e+00 1.0000e+00
       23  2    1    2    0    0 -4.1947481093e+01 -3.9391193378e+01 -7.0095091120e+00 1.0221057328e+02 8.4182009879e+01 0.0000e+00 0.0000e+00
       25  2    1    2    0    0 +4.1947481093e+01 +3.9391193378e+01 +7.0095091120e+00 1.3778942672e+02 1.2500214243e+02 0.0000e+00 0.0000e+00
      -11  1    3    3    0    0 +1.3397870739e+01 -3.0503937052e+01 +2.1168032201e+01 3.9472505662e+01 0.0000000000e+00 0.0000e+00 -1.0000e+00
       11  1    3    3    0    0 -5.5345351832e+01 -8.8872563262e+00 -2.8177541313e+01 6.2738067622e+01 0.0000000000e+00 0.0000e+00 1.0000e+00
        5  1    4    4  501    0 +2.1357182678e+01 -6.6341098379e+00 +2.5779649391e+01 3.4450268330e+01 4.7000000000e+00 0.0000e+00 -1.0000e+00
       -5  1    4    4    0  502 +3.4885392776e+01 +3.2912724993e+01 -3.5481255509e+01 5.9843525866e+01 4.7000000000e+00 0.0000e+00 1.0000e+00
        5  1    4    4  502    0 +3.5029619807e+00 +3.4804286863e+00 -8.4554674464e+00 1.0861356095e+01 4.7000000000e+00 0.0000e+00 1.0000e+00
       -5  1    4    4    0  501 -1.7798056341e+01 +9.6321495367e+00 +2.5166582676e+01 3.2634276425e+01 4.7000000000e+00 0.0000e+00 -1.0000e+00
</event>
<event>
10      1 +4.6527485e-10 2.40000000e+02 7.81860800e-03 1.03012300e-01
      -11 -1    0    0    0    0 +0.0000000000e+00 +0.0000000000e+00 +1.2000000000e+02 1.2000000000e+02 0.0000000000e+00 0.0000e+00 -1.0000e+00
       11 -1    0    0    0    0 -0.0000000000e+00 -0.0000000000e+00 -1.2000000000e+02 1.2000000000e+02 0.0000000000e+00 0.0000e+00 1.0000e+00
       23  2    1    2    0    0 -1.9097380222e+01 -3.3208203256e+01 -3.3907918102e+01 1.0494252260e+02 9.1628005791e+01 0.0000e+00 0.0000e+00
       25  2    1    2    0    0 +1.9097380222e+01 +3.3208203256e+01 +3.3907918102e+01 1.3505747740e+02 1.2499312220e+02 0.0000e+00 0.0000e+00
      -11  1    3    3    0    0 -3.6566652029e+01 -3.5012462471e+01 +1.5143120284e+01 5.2842280995e+01 0.0000000000e+00 0.0000e+00 -1.0000e+00
       11  1    3    3    0    0 +1.7469271807e+01 +1.8042592149e+00 -4.9051038386e+01 5.2100241607e+01 0.0000000000e+00 0.0000e+00 1.0000e+00
        5  1    4    4  501    0 -5.8236538376e+00 +8.0665538353e+00 +7.6367401723e+00 1.3393805854e+01 4.7000000000e+00 0.0000e+00 1.0000e+00
       -5  1    4    4    0  502 +5.0182412561e-01 -5.3963477883e-01 -8.0266665316e+00 9.3306167405e+00 4.7000000000e+00 0.0000e+00 -1.0000e+00
        5  1    4    4  502    0 +6.9442302138e+00 +2.7371960732e+01 -3.2381283256e+01 4.3221338166e+01 4.7000000000e+00 0.0000e+00 -1.0000e+00
       -5  1    4    4    0  501 +1.7474979720e+01 -1.6906765324e+00 +6.6679127718e+01 6.9111716637e+01 4.7000000000e+00 0.0000e+00 1.0000e+00
</event>
<event>
10      1 +4.6527485e-10 2.40000000e+02 7.81860800e-03 1.03012300e-01
      -11 -1    0    0    0    0 +0.0000000000e+00 +0.0000000000e+00 +1.2000000000e+02 1.2000000000e+02 0.0000000000e+00 0.0000e+00 -1.0000e+00
       11 -1    0    0    0    0 -0.0000000000e+00 -0.0000000000e+00 -1.2000000000e+02 1.2000000000e+02 0.0000000000e+00 0.0000e+00 1.0000e+00
       23  2    1    2    0    0 +4.1905943460e+01 +1.0686253363e+01 -2.3553073406e+01 1.0564959147e+02 9.3470769780e+01 0.0000e+00 0.0000e+00
       25  2    1    2    0    0 -4.1905943460e+01 -1.0686253363e+01 +2.3553073406e+01 1.3435040853e+02 1.2499992359e+02 0.0000e+00 0.0000e+00
      -13  1    3    3    0    0 +5.0634822078e+01 +3.5182910691e+01 +1.0765602011e+01 6.2590898685e+01 0.0000000000e+00 0.0000e+00 -1.0000e+00
       13  1    3    3    0    0 -8.7288786180e+00 -2.4496657328e+01 -3.4318675417e+01 4.3058692787e+01 0.0000000000e+00 0.0000e+00 1.0000e+00
        5  1    4    4  501    0 +2.0115780805e+01 +2.0494510628e+01 +1.7657409672e+01 3.4037387085e+01 4.7000000000e+00 0.0000e+00 -1.0000e+00
       -5  1    4    4    0  502 -2.4641753993e+00 -1.9638196752e+00 -3.8413560734e+00 6.8392078926e+00 4.7000000000e+00 0.0000e+00 -1.0000e+00
        5  1    4    4  502    0 +5.5364859188e+00 -2.5324344494e+01 +9.7584109589e+00 2.8094335458e+01 4.7000000000e+00 0.0000e+00 -1.0000e+00
       -5  1    4    4    0  501 -6.5094034785e+01 -3.8925998216e+00 -2.1391151083e-02 6.5379478091e+01 4.7000000000e+00 0.0000e+00 -1.0000e+00
</event>
<event>
10      1 +4.6527485e-10 2.40000000e+02 7.81860800e-03 1.03012300e-01
      -11 -1    0    0    0    0 +0.0000000000e+00 +0.0000000000e+00 +1.2000000000e+02 1.2000000000e+02 0.0000000000e+00 0.0000e+00 1.0000e+00
       11 -1    0    0    0    0 -0.0000000000e+00 -0.0000000000e+00 -1.2000000000e+02 1.2000000000e+02 0.0000000000e+00 0.0000e+00 -1.0000e+00
       23  2    1    2    0    0 +3.4073587879e+01 +3.6829182012e+01 -1.2476845653e+01 1.0473010703e+02 9.1078678092e+01 0.0000e+00 0.0000e+00
       25  2    1    2    0    0 -3.4073587879e+01 -3.6829182012e+01 +1.2476845653e+01 1.3526989297e+02 1.2499949691e+02 0.0000e+00 0.0000e+00
      -13  1    3    3    0    0 +5.2268709981e+01 -7.4388933006e+00 -1.9650832479e+01 5.6333918679e+01 0.0000000000e+00 0.0000e+00 -1.0000e+00
       13  1    3    3    0    0 -1.8195122102e+01 +4.4268075312e+01 +7.1739868262e+00 4.8396188354e+01 0.0000000000e+00 0.0000e+00 1.0000e+00
        5  1    4    4  501    0 +1.6718822326e+01 -1.6869863288e+01 -4.0325278337e+00 2.4545113323e+01 4.7000000000e+00 0.0000e+00 -1.0000e+00
       -5  1    4    4    0  501 +6.1437123359e+00 -4.2192752955e+01 -1.8810801420e+00 4.2937187445e+01 4.7000000000e+00 0.0000e+00 -1.0000e+00
        5  1    4    4  502    0 -5.2174605009e+01 +2.4923779326e+01 +1.5806709672e+01 6.0127583141e+01 4.7000000000e+00 0.0000e+00 -1.0000e+00
       -5  1    4    4    0  502 -4.7615175322e+00 -2.6903450941e+00 +2.5837439567e+00 7.6600090580e+00 4.7000000000e+00 0.0000e+00 -1.0000e+00
</event>
<event>
10      1 +4.6527485e-10 2.40000000e+02 7.81860800e-03 1.03012300e-01
      -11 -1    0    0    0    0 +0.0000000000e+00 +0.0000000000e+00 +1.2000000000e+02 1.2000000000e+02 0.0000000000e+00 0.0000e+00 1.0000e+00
       11 -1    0    0    0    0 -0.0000000000e+00 -0.0000000000e+00 -1.2000000000e+02 1.2000000000e+02 0.0000000000e+00 0.0000e+00 -1.0000e+00
       23  2    1    2    0    0 +3.0815429837e+01 -3.7087622191e+01 -1.7893775935e+01 1.0483052289e+02 9.1346422350e+01 0.0000e+00 0.0000e+00
       25  2    1    2    0    0 -3.0815429837e+01 +3.7087622191e+01 +1.7893775935e+01 1.3516947711e+02 1.2500207154e+02 0.0000e+00 0.0000e+00
      -11  1    3    3    0    0 +3.5979834510e+01 -2.7729765577e+01 +3.0861516773e+01 5.4917407148e+01 0.0000000000e+00 0.0000e+00 1.0000e+00
       11  1    3    3    0    0 -5.1644046731e+00 -9.3578566138e+00 -4.8755292707e+01 4.9913115741e+01 0.0000000000e+00 0.0000e+00 -1.0000e+00
        5  1    4    4  501    0 -4.4633041677e+01 +3.1528475356e+01 +5.6414539177e+01 7.8681912776e+01 4.7000000000e+00 0.0000e+00 -1.0000e+00
       -5  1    4    4    0  501 +1.3888110715e+00 -9.5682208457e-01 +2.2020676784e+00 5.4574175902e+00 4.7000000000e+00 0.0000e+00 -1.0000e+00
        5  1    4    4  502    0 +7.7014175599e+00 -6.8477494067e+00 -3.1507693461e+01 3.3481759983e+01 4.7000000000e+00 0.0000e+00 1.0000e+00
       -5  1    4    4    0  502 +4.7273832081e+00 +1.3363718326e+01 -9.2151374604e+00 1.7548386761e+01 4.7000000000e+00 0.0000e+00 1.0000e+00
</event>
<event>
10      1 +4.6527485e-10 2.40000000e+02 7.81860800e-03 1.03012300e-01
      -11 -1    0    0    0    0 +0.0000000000e+00 +0.0000000000e+00 +1.2000000000e+02 1.2000000000e+02 0.0000000000e+00 0.0000e+00 -1.0000e+00
       11 -1    0    0    0    0 -0.0000000000e+00 -0.0000000000e+00 -1.2000000000e+02 1.2000000000e+02 0.0000000000e+00 0.0000e+00 1.0000e+00
       23  2    1    2    0    0 -9.7036989024e+00 -1.2707226867e+01 -4.7414142668e+01 1.0535512985e+02 9.2714438323e+01 0.0000e+00 0.0000e+00
       25  2    1    2    0    0 +9.7036989024e+00 +1.2707226867e+01 +4.7414142668e+01 1.3464487015e+02 1.2500201897e+02 0.0000e+00 0.0000e+00
      -13  1    3    3    0    0 +1.3567512089e+01 -2.7247093902e+01 +1.7337263274e+01 3.5029447729e+01 0.0000000000e+00 0.0000e+00 -1.0000e+00
       13  1    3    3    0    0 -2.3271210991e+01 +1.4539867034e+01 -6.4751405941e+01 7.0325682121e+01 0.0000000000e+00 0.0000e+00 1.0000e+00
        5  1    4    4  501    0 +2.7713819841e+01 +1.0342031883e+01 -4.6103134499e+00 3.0304429111e+01 4.7000000000e+00 0.0000e+00 1.0000e+00
       -5  1    4    4    0  501 +1.7761667550e+01 -8.8136759678e+00 -1.4602543554e+01 2.5069543204e+01 4.7000000000e+00 0.0000e+00 1.0000e+00
        5  1    4    4  502    0 -2.1204202364e+01 +5.7808062345e+00 +2.0680940639e+01 3.0542220356e+01 4.7000000000e+00 0.0000e+00 1.0000e+00
       -5  1    4    4    0  502 -1.4567586125e+01 +5.3980647178e+00 +4.5946059033e+01 4.8728677479e+01 4.7000000000e+00 0.0000e+00 1.0000e+00
</event>
<event>
10      1 +4.6527485e-10 2.40000000e+02 7.81860800e-03 1.03012300e-01
      -11 -1    0    0    0    0 +0.0000000000e+00 +0.0000000000e+00 +1.2000000000e+02 1.2000000000e+02 0.0000000000e+00 0.0000e+00 -1.0000e+00
       11 -1    0    0    0    0 -0.0000000000e+00 -0.0000000000e+00 -1.2000000000e+02 1.2000000000e+02 0.0000000000e+00 0.0000e+00 1.0000e+00
       23  2    1    2    0    0 +1.5291037776e+01 +4.8697501762e+01 +2.1890837120e+01 1.0321588057e+02 8.7000268604e+01 0.0000e+00 0.0000e+00
       25  2    1    2    0    0 -1.5291037776e+01 -4.8697501762e+01 -2.1890837120e+01 1.3678411943e+02 1.2500169625e+02 0.0000e+00 0.0000e+00
      -13  1    3    3    0    0 +4.9349963032e+01 +2.6250734754e+01 +2.7053361832e+01 6.2099954210e+01 0.0000000000e+00 0.0000e+00 -1.0000e+00
       13  1    3    3    0    0 -3.4058925257e+01 +2.2446767008e+01 -5.1625247126e+00 4.1115926356e+01 0.0000000000e+00 0.0000e+00 1.0000e+00
        5  1    4    4  501    0 -2.3841341024e+01 -1.5884673564e+01 +1.3020787561e+01 3.1817657123e+01 4.7000000000e+00 0.0000e+00 -1.0000e+00
       -5  1    4    4    0  501 -3.4756725419e+01 -6.2563785890e+00 +1.3179010503e+00 3.5651074291e+01 4.7000000000e+00 0.0000e+00 -1.0000e+00
        5  1    4    4  502    0 +1.9765681552e+01 -2.8281363539e+01 -2.4223761493e+01 4.2419315314e+01 4.7000000000e+00 0.0000e+00 -1.0000e+00
       -5  1    4    4    0  502 +2.3541347116e+01 +1.7249139297e+00 -1.2005764238e+01 2.6896072706e+01 4.7000000000e+00 0.0000e+00 -1.0000e+00
</event>
<event>
10      1 +4.6527485e-10 2.40000000e+02 7.81860800e-03 1.03012300e-01
      -11 -1    0    0    0    0 +0.0000000000e+00 +0.0000000000e+00 +1.2000000000e+02 1.2000000000e+02 0.0000000000e+00 0.0000e+00 -1.0000e+00
       11 -1    0    0    0    0 -0.0000000000e+00 -0.0000000000e+00 -1.2000000000e+02 1.2000000000e+02 0.0000000000e+00 0.0000e+00 1.0000e+00
       23  2    1    2    0    0 +3.3626129307e+01 -2.2746761377e+01 +3.2676480968e+01 1.0457293213e+02 9.0662086897e+01 0.0000e+00 0.0000e+00
       25  2    1    2    0    0 -3.3626129307e+01 +2.2746761377e+01 -3.2676480968e+01 1.3542706787e+02 1.2499842630e+02 0.0000e+00 0.0000e+00
      -13  1    3    3    0    0 -2.2772383793e+01 -2.3716518357e+01 +3.5125497335e+01 4.8112942849e+01 0.0000000000e+00 0.0000e+00 -1.0000e+00
       13  1    3    3    0    0 +5.6398513100e+01 +9.6975698012e-01 -2.4490163671e+00 5.6459989281e+01 0.0000000000e+00 0.0000e+00 1.0000e+00
        5  1    4    4  501    0 +1.3939554216e+01 +4.1478935472e+01 -2.0535702165e+01 4.8565608439e+01 4.7000000000e+00 0.0000e+00 -1.0000e+00
       -5  1    4    4    0  501 +9.1897970636e-01 +1.9053377920e+01 +4.0373579625e+00 2.0056569826e+01 4.7000000000e+00 0.0000e+00 -1.0000e+00
        5  1    4    4  502    0 -2.3520464161e+01 -1.0380328816e+01 -1.3304478221e+01 2.9326823922e+01 4.7000000000e+00 0.0000e+00 -1.0000e+00
       -5  1    4    4    0  502 -2.4964199069e+01 -2.7405223200e+01 -2.8736585443e+00 3.7478065681e+01 4.7000000000e+00 0.0000e+00 -1.0000e+00
</event>
<event>
10      1 +4.6527485e-10 2.40000000e+02 7.81860800e-03 1.03012300e-01
      -11 -1    0    0    0    0 +0.0000000000e+00 +0.0000000000e+00 +1.2000000000e+02 1.2000000000e+02 0.0000000000e+00 0.0000e+00 -1.0000e+00
       11 -1    0    0    0    0 -0.0000000000e+00 -0.0000000000e+00 -1.2000000000e+02 1.2000000000e+02 0.0000000000e+00 0.0000e+00 1.0000e+00
       23  2    1    2    0    0 +3.1083864622e+01 +1.6752459751e+01 -3.7980368649e+01 1.0466975779e+02 9.0919735177e+01 0.0000e+00 0.0000e+00
       25  2    1    2    0    0 -3.1083864622e+01 -1.6752459751e+01 +3.7980368649e+01 1.3533024221e+02 1.2499965803e+02 0.0000e+00 0.0000e+00
      -11  1    3    3    0    0 +4.2572402218e+01 -2.8191737623e+01 -2.2093607945e+01 5.5635519346e+01 0.0000000000e+00 0.0000e+00 1.0000e+00
       11  1    3    3    0    0 -1.1488537597e+01 +4.4944197374e+01 -1.5886760704e+01 4.9034238440e+01 0.0000000000e+00 0.0000e+00 -1.0000e+00
        5  1    4    4  501    0 -4.9622102072e+01 +1.8860957529e+01 +4.4157381533e+01 6.9210209340e+01 4.7000000000e+00 0.0000e+00 -1.0000e+00
       -5  1    4    4    0  501 +2.4830941615e+01 -3.7826983389e+01 -6.8856186202e+00 4.6010412708e+01 4.7000000000e+00 0.0000e+00 -1.0000e+00
        5  1    4    4  502    0 -7.2481541075e+00 -3.8608867335e+00 +5.5603917069e+00 1.0974977917e+01 4.7000000000e+00 0.0000e+00 1.0000e+00
       -5  1    4    4    0  502 +9.5544994280e-01 +6.0744528424e+00 -4.8517859708e+00 9.1346422499e+00 4.7000000000e+00 0.0000e+00 1.0000e+00
</event>
<event>
10      1 +4.6527485e-10 2.40000000e+02 7.81860800e-03 1.03012300e-01
      -11 -1    0    0    0    0 +0.0000000000e+00 +0.0000000000e+00 +1.2000000000e+02 1.2000000000e+02 0.0000000000e+00 0.0000e+00 1.0000e+00
       11 -1    0    0    0    0 -0.0000000000e+00 -0.0000000000e+00 -1.2000000000e+02 1.2000000000e+02 0.0000000000e+00 0.0000e+00 -1.0000e+00
       23  2    1    2    0    0 +5.1840340471e+00 -3.2081899950e+01 -5.3226044365e+01 1.0029402657e+02 7.8547803617e+01 0.0000e+00 0.0000e+00
       25  2    1    2    0    0 -5.1840340471e+00 +3.2081899950e+01 +5.3226044365e+01 1.3970597343e+02 1.2501449796e+02 0.0000e+00 0.0000e+00
      -13  1    3    3    0    0 -2.7976009892e+01 +8.6439267582e+00 -6.4900780755e+00 2.9991594034e+01 0.0000000000e+00 0.0000e+00 1.0000e+00
       13  1    3    3    0    0 +3.3160043939e+01 -4.0725826708e+01 -4.6735966290e+01 7.0302432534e+01 0.0000000000e+00 0.0000e+00 -1.0000e+00
        5  1    4    4  501    0 +1.9574715564e+01 -1.1578473497e+01 +1.1165548627e+01 2.5768003688e+01 4.7000000000e+00 0.0000e+00 -1.0000e+00
       -5  1    4    4    0  501 -8.7787531569e-01 -5.9626423337e-01 +2.7513606757e+00 5.5485296858e+00 4.7000000000e+00 0.0000e+00 -1.0000e+00
        5  1    4    4  502    0 -2.2939984459e+00 -2.4200528952e+01 -2.9926523881e+00 2.4939406543e+01 4.7000000000e+00 0.0000e+00 -1.0000e+00
       -5  1    4    4    0  502 -2.1586875849e+01 +6.8457166632e+01 +4.2301787451e+01 8.3450033515e+01 4.7000000000e+00 0.0000e+00 -1.0000e+00
</event>
<event>
10      1 +4.6527485e-10 2.40000000e+02 7.81860800e-03 1.03012300e-01
      -11 -1    0    0    0    0 +0.0000000000e+00 +0.0000000000e+00 +1.2000000000e+02 1.2000000000e+02 0.0000000000e+00 0.0000e+00 1.0000e+00
       11 -1    0    0    0    0 -0.0000000000e+00 -0.0000000000e+00 -1.2000000000e+02 1.2000000000e+02 0.0000000000e+00 0.0000e+00 -1.0000e+00
       23  2    1    2    0    0 -2.8979499243e+00 +2.5645840274e+01 -4.5237284516e+01 1.0458236684e+02 9.0691522788e+01 0.0000e+00 0.0000e+00
       25  2    1    2    0    0 +2.8979499243e+00 -2.5645840274e+01 +4.5237284516e+01 1.3541763316e+02 1.2500166489e+02 0.0000e+00 0.0000e+00
      -13  1    3    3    0    0 -2.8392602360e+01 -1.4509845988e+01 +8.3195257443e+00 3.2952845218e+01 0.0000000000e+00 0.0000e+00 1.0000e+00
       13  1    3    3    0    0 +2.5494652436e+01 +4.0155686262e+01 -5.3556810260e+01 7.1629521618e+01 0.0000000000e+00 0.0000e+00 -1.0000e+00
        5  1    4    4  501    0 +3.1897338230e+01 +1.1211662980e+01 -1.3251362005e+01 3.6617347909e+01 4.7000000000e+00 0.0000e+00 1.0000e+00
       -5  1    4    4    0  501 +2.1377396555e+00 -3.4960765343e+00 -4.5291997905e+00 7.7068886531e+00 4.7000000000e+00 0.0000e+00 -1.0000e+00
        5  1    4    4  502    0 -7.7684318506e+00 +1.1474608251e+01 +1.0275312476e+01 1.7879799059e+01 4.7000000000e+00 0.0000e+00 -1.0000e+00
       -5  1    4    4    0  502 -2.3368696110e+01 -4.4836034970e+01 +5.2742533836e+01 7.3213597542e+01 4.7000000000e+00 0.0000e+00 1.0000e+00
</event>
<event>
10      1 +4.6527485e-10 2.40000000e+02 7.81860800e-03 1.03012300e-01
      -11 -1    0    0    0    0 +0.0000000000e+00 +0.0000000000e+00 +1.2000000000e+02 1.2000000000e+02 0.0000000000e+00 0.0000e+00 -1.0000e+00
       11 -1    0    0    0    0 -0.0000000000e+00 -0.0000000000e+00 -1.2000000000e+02 1.2000000000e+02 0.0000000000e+00 0.0000e+00 1.0000e+00
       23  2    1    2    0    0 -1.2960950939e+01 -4.4672798721e+01 -2.4591062895e+01 1.0437956347e+02 9.0148364943e+01 0.0000e+00 0.0000e+00
       25  2    1    2    0    0 +1.2960950939e+01 +4.4672798721e+01 +2.4591062895e+01 1.3562043653e+02 1.2499814892e+02 0.0000e+00 0.0000e+00
      -11  1    3    3    0    0 +1.2142968010e+01 -1.3253465457e+01 +3.0959470684e+01 3.5799369320e+01 0.0000000000e+00 0.0000e+00 -1.0000e+00
       11  1    3    3    0    0 -2.5103918949e+01 -3.1419333265e+01 -5.5550533578e+01 6.8580194154e+01 0.0000000000e+00 0.0000e+00 1.0000e+00
        5  1    4    4  501    0 +2.2943783374e+01 -7.9405408624e+00 +5.5429547846e+01 6.0695915506e+01 4.7000000000e+00 0.0000e+00 1.0000e+00
       -5  1    4    4    0  502 -1.9476517536e+00 -1.2053639798e-02 -4.8167556361e-01 5.1103330608e+00 4.7000000000e+00 0.0000e+00 -1.0000e+00
        5  1    4    4  502    0 -1.1402759205e+01 +5.2357414108e+01 -3.3357957236e+01 6.3294273363e+01 4.7000000000e+00 0.0000e+00 -1.0000e+00
       -5  1    4    4    0  501 +3.3675785241e+00 +2.6797911554e-01 +3.0011478487e+00 6.5199145954e+00 4.7000000000e+00 0.0000e+00 -1.0000e+00
</event>
<event>
10      1 +4.6527485e-10 2.40000000e+02 7.81860800e-03 1.03012300e-01
      -11 -1    0    0    0    0 +0.0000000000e+00 +0.0000000000e+00 +1.2000000000e+02 1.2000000000e+02 0.0000000000e+00 0.0000e+00 -1.0000e+00
       11 -1    0    0    0    0 -0.0000000000e+00 -0.0000000000e+00 -1.2000000000e+02 1.2000000000e+02 0.0000000000e+00 0.0000e+00 1.0000e+00
       23  2    1    2    0    0 -2.3291311834e+01 -1.2402616665e+01 -3.0158290870e+01 1.0872979749e+02 1.0107589350e+02 0.0000e+00 0.0000e+00
       25  2    1    2    0    0 +2.3291311834e+01 +1.2402616665e+01 +3.0158290870e+01 1.3127020251e+02 1.2500413374e+02 0.0000e+00 0.0000e+00
      -13  1    3    3    0    0 -5.6353447718e+01 -2.3453705576e+00 +8.3182479730e+00 5.7012323949e+01 0.0000000000e+00 0.0000e+00 -1.0000e+00
       13  1    3    3    0    0 +3.3062135884e+01 -1.0057246107e+01 -3.8476538843e+01 5.1717473544e+01 0.0000000000e+00 0.0000e+00 1.0000e+00
        5  1    4    4  501    0 -2.8611008338e+01 +1.6712318565e+01 -4.3092079120e+00 3.3742416374e+01 4.7000000000e+00 0.0000e+00 1.0000e+00
       -5  1    4    4    0  501 -1.5223107749e+01 -9.4810877418e+00 +5.6578825229e+00 1.9383902315e+01 4.7000000000e+00 0.0000e+00 1.0000e+00
        5  1    4    4  502    0 +9.6436911904e+00 -7.5928741658e+00 +8.6284685352e+00 1.5722372185e+01 4.7000000000e+00 0.0000e+00 1.0000e+00
       -5  1    4    4    0  502 +5.7481736730e+01 +1.2764260007e+01 +2.0181147724e+01 6.2421511633e+01 4.7000000000e+00 0.0000e+00 1.0000e+00
</event>
<event>
10      1 +4.6527485e-10 2.40000000e+02 7.81860800e-03 1.03012300e-01
      -11 -1    0    0    0    0 +0.0000000000e+00 +0.0000000000e+00 +1.2000000000e+02 1.2000000000e+02 0.0000000000e+00 0.0000e+00 1.0000e+00
       11 -1    0    0    0    0 -0.0000000000e+00 -0.0000000000e+00 -1.2000000000e+02 1.2000000000e+02 0.0000000000e+00 0.0000e+00 -1.0000e+00
       23  2    1    2    0    0 +3.2984573311e+01 -1.4752825809e+01 +3.6317589036e+01 1.0490978606e+02 9.1550357686e+01 0.0000e+00 0.0000e+00
       25  2    1    2    0    0 -3.2984573311e+01 +1.4752825809e+01 -3.6317589036e+01 1.3509021394e+02 1.2499908273e+02 0.0000e+00 0.0000e+00
      -13  1    3    3    0    0 +3.3606687083e+01 -2.4587640056e+01 +6.3534140057e+01 7.5964125829e+01 0.0000000000e+00 0.0000e+00 1.0000e+00
       13  1    3    3    0    0 -6.2211377120e-01 +9.8348142476e+00 -2.7216551022e+01 2.8945660233e+01 0.0000000000e+00 0.0000e+00 -1.0000e+00
        5  1    4    4  501    0 -1.1057180661e+01 -2.1207643107e+01 -2.4029891430e+01 3.4227927960e+01 4.7000000000e+00 0.0000e+00 -1.0000e+00
       -5  1    4    4    0  501 +4.6448373561e+00 -2.3304867238e+01 -2.2498623617e+01 3.3060087957e+01 4.7000000000e+00 0.0000e+00 -1.0000e+00
        5  1    4    4  502    0 -2.1361176001e+01 +4.2551221838e+01 +1.9555249974e+00 4.7883404203e+01 4.7000000000e+00 0.0000e+00 -1.0000e+00
       -5  1    4    4    0  502 -5.2110540057e+00 +1.6714114317e+01 +8.2554010133e+00 1.9918793817e+01 4.7000000000e+00 0.0000e+00 -1.0000e+00
</event>
<event>
10      1 +4.6527485e-10 2.40000000e+02 7.81860800e-03 1.03012300e-01
      -11 -1    0    0    0    0 +0.0000000000e+00 +0.0000000000e+00 +1.2000000000e+02 1.2000000000e+02 0.0000000000e+00 0.0000e+00 -1.0000e+00
       11 -1    0    0    0    0 -0.0000000000e+00 -0.0000000000e+00 -1.2000000000e+02 1.2000000000e+02 0.0000000000e+00 0.0000e+00 1.0000e+00
       23  2    1    2    0    0 -8.1385257161e+00 -3.4191594294e+01 +3.7536451470e+01 1.0483453399e+02 9.1356409769e+01 0.0000e+00 0.0000e+00
       25  2    1    2    0    0 +8.1385257161e+00 +3.4191594294e+01 -3.7536451470e+01 1.3516546601e+02 1.2500166916e+02 0.0000e+00 0.0000e+00
      -13  1    3    3    0    0 +3.2365635872e+00 -1.1493272314e+01 -3.0211487012e+01 3.2485452126e+01 0.0000000000e+00 0.0000e+00 1.0000e+00
       13  1    3    3    0    0 -1.1375089303e+01 -2.2698321980e+01 +6.7747938482e+01 7.2349081860e+01 0.0000000000e+00 0.0000e+00 -1.0000e+00
        5  1    4    4  501    0 +1.6655935259e+00 +2.1915273964e+01 -4.4164167060e+01 4.9554183343e+01 4.7000000000e+00 0.0000e+00 -1.0000e+00
       -5  1    4    4    0  501 +9.8774293494e+00 +1.7031395602e+01 -1.0107451021e+01 2.2624822935e+01 4.7000000000e+00 0.0000e+00 -1.0000e+00
        5  1    4    4  502    0 +2.6214501471e+01 -1.1430583771e+01 +1.3869313178e+01 3.2129521950e+01 4.7000000000e+00 0.0000e+00 -1.0000e+00
       -5  1    4    4    0  502 -2.9618998630e+01 +6.6755084989e+00 +2.8658534334e+00 3.0856937785e+01 4.7000000000e+00 0.0000e+00 -1.0000e+00
</event>
<event>
10      1 +4.6527485e-10 2.40000000e+02 7.81860800e-03 1.03012300e-01
      -11 -1    0    0    0    0 +0.0000000000e+00 +0.0000000000e+00 +1.2000000000e+02 1.2000000000e+02 0.0000000000e+00 0.0000e+00 1.0000e+00
       11 -1    0    0    0    0 -0.0000000000e+00 -0.0000000000e+00 -1.2000000000e+02 1.2000000000e+02 0.0000000000e+00 0.0000e+00 -1.0000e+00
       23  2    1    2    0    0 -3.3972686843e+00 +5.3726610893e+01 -1.9412429311e+01 1.0252762260e+02 8.5070446283e+01 0.0000e+00 0.0000e+00
       25  2    1    2    0    0 +3.3972686843e+00 -5.3726610893e+01 +1.9412429311e+01 1.3747237740e+02 1.2499488784e+02 0.0000e+00 0.0000e+00
      -13  1    3    3    0    0 -1.6566383341e+01 -1.5089171687e+01 +1.2365248758e+01 2.5593505739e+01 0.0000000000e+00 0.0000e+00 1.0000e+00
       13  1    3    3    0    0 +1.3169114657e+01 +6.8815782580e+01 -3.1777678069e+01 7.6934116856e+01 0.0000000000e+00 0.0000e+00 -1.0000e+00
        5  1    4    4  501    0 +8.6986786509e+00 -9.9111784529e+00 -1.2266656408e+01 1.8613417957e+01 4.7000000000e+00 0.0000e+00 -1.0000e+00
       -5  1    4    4    0  501 +2.2429185857e+01 -5.5850970165e+01 +4.7090446764e+01 7.6563695202e+01 4.7000000000e+00 0.0000e+00 -1.0000e+00
        5  1    4    4  502    0 -2.5065374982e+01 +8.9449334649e-01 -4.7510888285e+00 2.5956424761e+01 4.7000000000e+00 0.0000e+00 1.0000e+00
       -5  1    4    4    0  502 -2.6652208423e+00 +1.1141044379e+01 -1.0660272216e+01 1.6338839485e+01 4.7000000000e+00 0.0000e+00 1.0000e+00
</event>
<event>
10      1 +4.6527485e-10 2.40000000e+02 7.81860800e-03 1.03012300e-01
      -11 -1    0    0    0    0 +0.0000000000e+00 +0.0000000000e+00 +1.2000000000e+02 1.2000000000e+02 0.0000000000e+00 0.0000e+00 1.0000e+00
       11 -1    0    0    0    0 -0.0000000000e+00 -0.0000000000e+00 -1.2000000000e+02 1.2000000000e+02 0.0000000000e+00 0.0000e+00 -1.0000e+00
       23  2    1    2    0    0 +4.2944639399e+01 +8.9144210759e+00 -1.8264821969e+01 1.0627371374e+02 9.5062030030e+01 0.0000e+00 0.0000e+00
       25  2    1    2    0    0 -4.2944639399e+01 -8.9144210759e+00 +1.8264821969e+01 1.3372628626e+02 1.2500162783e+02 0.0000e+00 0.0000e+00
      -13  1    3    3    0    0 -1.9319208184e+01 +3.2727598512e+01 -7.7688462154e+00 3.8790236925e+01 0.0000000000e+00 0.0000e+00 1.0000e+00
       13  1    3    3    0    0 +6.2263847583e+01 -2.3813177436e+01 -1.0495975753e+01 6.7483476811e+01 0.0000000000e+00 0.0000e+00 -1.0000e+00
        5  1    4    4  501    0 -2.2084544651e+01 -2.2432958077e+01 -4.4093432626e+01 5.4380929757e+01 4.7000000000e+00 0.0000e+00 1.0000e+00
       -5  1    4    4    0  502 -1.4952365354e-01 -1.2600084648e+00 +1.2338614367e+01 1.3264289772e+01 4.7000000000e+00 0.0000e+00 1.0000e+00
        5  1    4    4  502    0 -2.2583529964e+01 +1.9277346906e+01 +5.1039146618e+01 5.9234419191e+01 4.7000000000e+00 0.0000e+00 1.0000e+00
       -5  1    4    4    0  501 +1.8729588692e+00 -4.4988014396e+00 -1.0195063900e+00 6.8466475444e+00 4.7000000000e+00 0.0000e+00 1.0000e+00
</event>
<event>
10      1 +4.6527485e-10 2.40000000e+02 7.81860800e-03 1.03012300e-01
      -11 -1    0    0    0    0 +0.0000000000e+00 +0.0000000000e+00 +1.2000000000e+02 1.2000000000e+02 0.0000000000e+00 0.0000e+00 1.0000e+00
       11 -1    0    0    0    0 -0.0000000000e+00 -0.0000000000e+00 -1.2000000000e+02 1.2000000000e+02 0.0000000000e+00 0.0000e+00 -1.0000e+00
       23  2    1    2    0    0 -1.5493744368e+01 +2.2619923163e+01 +4.3038616586e+01 1.0498979752e+02 9.1754117222e+01 0.0000e+00 0.0000e+00
       25  2    1    2    0    0 +1.5493744368e+01 -2.2619923163e+01 -4.3038616586e+01 1.3501020248e+02 1.2499486076e+02 0.0000e+00 0.0000e+00
      -13  1    3    3    0    0 -7.4426685453e+00 +1.3000952418e+01 +7.1940258398e+01 7.3483459753e+01 0.0000000000e+00 0.0000e+00 1.0000e+00
       13  1    3    3    0    0 -8.0510758225e+00 +9.6189707450e+00 -2.8901641812e+01 3.1506337767e+01 0.0000000000e+00 0.0000e+00 -1.0000e+00
        5  1    4    4  501    0 +3.1557191243e+01 -1.6607895976e+01 +1.9680007731e+00 3.6022792159e+01 4.7000000000e+00 0.0000e+00 1.0000e+00
       -5  1    4    4    0  501 +2.2833475089e+01 -6.2726036054e+00 +1.2674826021e+01 2.7266359407e+01 4.7000000000e+00 0.0000e+00 1.0000e+00
        5  1    4    4  502    0 -3.1466180985e+01 +3.6692630507e+00 -3.6644039059e+01 4.8666822741e+01 4.7000000000e+00 0.0000e+00 -1.0000e+00
       -5  1    4    4    0  502 -7.4307409792e+00 -3.4086866326e+00 -2.1037404321e+01 2.3054228173e+01 4.7000000000e+00 0.0000e+00 -1.0000e+00
</event>
<event>
10      1 +4.6527485e-10 2.40000000e+02 7.81860800e-03 1.03012300e-01
      -11 -1    0    0    0    0 +0.0000000000e+00 +0.0000000000e+00 +1.2000000000e+02 1.2000000000e+02 0.0000000000e+00 0.0000e+00 1.0000e+00
       11 -1    0    0    0    0 -0.0000000000e+00 -0.0000000000e+00 -1.2000000000e+02 1.2000000000e+02 0.0000000000e+00 0.0000e+00 -1.0000e+00
       23  2    1    2    0    0 -4.3082950495e+01 -1.6813532979e+01 +2.1809756436e+01 1.0494395982e+02 9.1644605479e+01 0.0000e+00 0.0000e+00
       25  2    1    2    0    0 +4.3082950495e+01 +1.6813532979e+01 -2.1809756436e+01 1.3505604018e+02 1.2500253196e+02 0.0000e+00 0.0000e+00
      -13  1    3    3    0    0 -9.3508803227e+00 +1.2778782443e+01 +4.9665210927e+01 5.2128393606e+01 0.0000000000e+00 0.0000e+00 1.0000e+00
       13  1    3    3    0    0 -3.3732070172e+01 -2.9592315422e+01 -2.7855454491e+01 5.2815566219e+01 0.0000000000e+00 0.0000e+00 -1.0000e+00
        5  1    4    4  501    0 +2.3504434023e+00 -5.2594567900e+00 -7.2998564480e+00 1.0419422924e+01 4.7000000000e+00 0.0000e+00 -1.0000e+00
       -5  1    4    4    0  501 +3.0740484374e+01 -1.9914952629e+01 -2.2001675947e+01 4.2985421508e+01 4.7000000000e+00 0.0000e+00 -1.0000e+00
        5  1    4    4  502    0 +3.1808882929e+01 +3.6520312934e+01 -1.3534267816e+01 5.0505491734e+01 4.7000000000e+00 0.0000e+00 -1.0000e+00
       -5  1    4    4    0  502 -2.1816860210e+01 +5.4676294641e+00 +2.1026043775e+01 3.1145704009e+01 4.7000000000e+00 0.0000e+00 -1.0000e+00
</event>
<event>
10      1 +4.6527485e-10 2.40000000e+02 7.81860800e-03 1.03012300e-01
      -11 -1    0    0    0    0 +0.0000000000e+00 +0.0000000000e+00 +1.2000000000e+02 1.2000000000e+02 0.0000000000e+00 0.0000e+00 1.0000e+00
       11 -1    0    0    0    0 -0.0000000000e+00 -0.0000000000e+00 -1.2000000000e+02 1.2000000000e+02 0.0000000000e+00 0.0000e+00 -1.0000e+00
       23  2    1    2    0    0 +3.6332240706e+01 -2.5301266504e+01 -2.2990224822e+01 1.0541339880e+02 9.2861447371e+01 0.0000e+00 0.0000e+00
       25  2    1    2    0    0 -3.6332240706e+01 +2.5301266504e+01 +2.2990224822e+01 1.3458660120e+02 1.2499926793e+02 0.0000e+00 0.0000e+00
      -11  1    3    3    0    0 -1.5240194433e+01 -4.4613371613e+01 -4.6656726449e+00 4.7374940151e+01 0.0000000000e+00 0.0000e+00 1.0000e+00
       11  1    3    3    0    0 +5.1572435140e+01 +1.9312105109e+01 -1.8324552177e+01 5.8038458650e+01 0.0000000000e+00 0.0000e+00 -1.0000e+00
        5  1    4    4  501    0 +1.0491822075e+01 +1.2343141898e+01 -2.6291350031e+01 3.1237102440e+01 4.7000000000e+00 0.0000e+00 -1.0000e+00
       -5  1    4    4    0  502 -4.8995011580e+01 +7.3435442977e+00 +5.3573510670e+01 7.3120789439e+01 4.7000000000e+00 0.0000e+00 -1.0000e+00
        5  1    4    4  502    0 -1.0522976435e+01 +4.1296115567e+00 +5.5353577060e+00 1.3435658138e+01 4.7000000000e+00 0.0000e+00 -1.0000e+00
       -5  1    4    4    0  501 +1.2693925234e+01 +1.4849687515e+00 -9.8272935238e+00 1.6793051183e+01 4.7000000000e+00 0.0000e+00 -1.0000e+00
</event>
<event>
10      1 +4.6527485e-10 2.40000000e+02 7.81860800e-03 1.03012300e-01
      -11 -1    0    0    0    0 +0.0000000000e+00 +0.0000000000e+00 +1.2000000000e+02 1.2000000000e+02 0.0000000000e+00 0.0000e+00 1.0000e+00
       11 -1    0    0    0    0 -0.0000000000e+00 -0.0000000000e+00 -1.2000000000e+02 1.2000000000e+02 0.0000000000e+00 0.0000e+00 -1.0000e+00
       23  2    1    2    0    0 +1.5702873180e+01 -5.1270854826e+01 +8.0851345753e+00 1.0374330617e+02 8.8442203683e+01 0.0000e+00 0.0000e+00
       25  2    1    2    0    0 -1.5702873180e+01 +5.1270854826e+01 -8.0851345753e+00 1.3625669383e+02 1.2500094573e+02 0.0000e+00 0.0000e+00
      -11  1    3    3    0    0 +1.2202008485e+01 +2.2039189139e+01 +1.6125457567e+01 2.9910621035e+01 0.0000000000e+00 0.0000e+00 1.0000e+00
       11  1    3    3    0    0 +3.5008646950e+00 -7.3310043965e+01 -8.0403229916e+00 7.3832685131e+01 0.0000000000e+00 0.0000e+00 -1.0000e+00
        5  1    4    4  501    0 -6.0016220529e+00 +4.5633057017e+00 +5.3783340491e+00 1.0385552625e+01 4.7000000000e+00 0.0000e+00 -1.0000e+00
       -5  1    4    4    0  502 +2.5410625233e+01 -1.7691047728e+01 -2.3378222620e+01 3.9080741258e+01 4.7000000000e+00 0.0000e+00 1.0000e+00
        5  1    4    4  502    0 +6.8894771589e+00 +4.3077215034e+00 -6.6215680362e+00 1.1487233058e+01 4.7000000000e+00 0.0000e+00 1.0000e+00
       -5  1    4    4    0  501 -4.2001353519e+01 +6.0090875349e+01 +1.6536322031e+01 7.5303166892e+01 4.7000000000e+00 0.0000e+00 -1.0000e+00
</event>
<event>
10      1 +4.6527485e-10 2.40000000e+02 7.81860800e-03 1.03012300e-01
      -11 -1    0    0    0    0 +0.0000000000e+00 +0.0000000000e+00 +1.2000000000e+02 1.2000000000e+02 0.0000000000e+00 0.0000e+00 1.0000e+00
       11 -1    0    0    0    0 -0.0000000000e+00 -0.0000000000e+00 -1.2000000000e+02 1.2000000000e+02 0.0000000000e+00 0.0000e+00 -1.0000e+00
       23  2    1    2    0    0 +4.4674050600e+01 +1.9065179580e+01 -2.8869351539e+00 1.0587345948e+02 9.4029799305e+01 0.0000e+00 0.0000e+00
       25  2    1    2    0    0 -4.4674050600e+01 -1.9065179580e+01 +2.8869351539e+00 1.3412654052e+02 1.2498936998e+02 0.0000e+00 0.0000e+00
      -13  1    3    3    0    0 +5.1037693014e+01 +8.3468086149e+00 -4.0858321762e+01 6.5908404467e+01 0.0000000000e+00 0.0000e+00 -1.0000e+00
       13  1    3    3    0    0 -6.3636424142e+00 +1.0718370965e+01 +3.7971386608e+01 3.9965055009e+01 0.0000000000e+00 0.0000e+00 1.0000e+00
        5  1    4    4  501    0 -1.4963997124e+01 +7.0342209562e+00 -9.7324374224e+00 1.9753779704e+01 4.7000000000e+00 0.0000e+00 -1.0000e+00
       -5  1    4    4    0  501 -2.9885981937e+01 -3.7712599938e+00 -4.0463498348e+01 5.0663389315e+01 4.7000000000e+00 0.0000e+00 -1.0000e+00
        5  1    4    4  502    0 -9.7829078138e+00 -2.1466626421e+01 +3.3775371642e+01 4.1465492457e+01 4.7000000000e+00 0.0000e+00 1.0000e+00
       -5  1    4    4    0  502 +9.9588362759e+00 -8.6151412186e-01 +1.9307499283e+01 2.2243879048e+01 4.7000000000e+00 0.0000e+00 1.0000e+00
</event>
<event>
10      1 +4.6527485e-10 2.40000000e+02 7.81860800e-03 1.03012300e-01
      -11 -1    0    0    0    0 +0.0000000000e+00 +0.0000000000e+00 +1.2000000000e+02 1.2000000000e+02 0.0000000000e+00 0.0000e+00 -1.0000e+00
       11 -1    0    0    0    0 -0.0000000000e+00 -0.0000000000e+00 -1.2000000000e+02 1.2000000000e+02 0.0000000000e+00 0.0000e+00 1.0000e+00
       23  2    1    2    0    0 -3.8367714121e+01 -1.8859207285e+01 -2.8277472640e+01 1.0490212011e+02 9.1526434201e+01 0.0000e+00 0.0000e+00
       25  2    1    2    0    0 +3.8367714121e+01 +1.8859207285e+01 +2.8277472640e+01 1.3509787989e+02 1.2499628197e+02 0.0000e+00 0.0000e+00
      -13  1    3    3    0    0 -4.3427082748e+01 -1.7935797662e+01 -5.8053755471e+01 7.4684957509e+01 0.0000000000e+00 0.0000e+00 1.0000e+00
       13  1    3    3    0    0 +5.0593686273e+00 -9.2340962277e-01 +2.9776282830e+01 3.0217162597e+01 0.0000000000e+00 0.0000e+00 -1.0000e+00
        5  1    4    4  501    0 +1.7675247383e+01 +2.2431814295e+01 +1.2666673028e+01 3.1593278846e+01 4.7000000000e+00 0.0000e+00 1.0000e+00
       -5  1    4    4    0  502 +2.8674626426e+00 -4.8349989501e+00 -4.7985716135e+00 8.7587582673e+00 4.7000000000e+00 0.0000e+00 -1.0000e+00
        5  1    4    4  502    0 -8.2511248110e+00 +1.9759241146e+00 -3.3390631411e+01 3.4770815389e+01 4.7000000000e+00 0.0000e+00 -1.0000e+00
       -5  1    4    4    0  501 +2.6076128906e+01 -7.1353217464e-01 +5.3800002637e+01 5.9975027392e+01 4.7000000000e+00 0.0000e+00 1.0000e+00
</event>
<event>
10      1 +4.6527485e-10 2.40000000e+02 7.81860800e-03 1.03012300e-01
      -11 -1    0    0    0    0 +0.0000000000e+00 +0.0000000000e+00 +1.2000000000e+02 1.2000000000e+02 0.0000000000e+00 0.0000e+00 -1.0000e+00
       11 -1    0    0    0    0 -0.0000000000e+00 -0.0000000000e+00 -1.2000000000e+02 1.2000000000e+02 0.0000000000e+00 0.0000e+00 1.0000e+00
       23  2    1    2    0    0 +2.8041978628e+01 +2.3361836421e+01 -3.2594324734e+01 1.0576237653e+02 9.3761198361e+01 0.0000e+00 0.0000e+00
       25  2    1    2    0    0 -2.8041978628e+01 -2.3361836421e+01 +3.2594324734e+01 1.3423762347e+02 1.2500088633e+02 0.0000e+00 0.0000e+00
      -13  1    3    3    0    0 +1.7531504534e+01 +1.7083894864e+01 -6.5888453981e+01 7.0288700963e+01 0.0000000000e+00 0.0000e+00 1.0000e+00
       13  1    3    3    0    0 +1.0510474095e+01 +6.2779415565e+00 +3.3294129248e+01 3.5473675567e+01 0.0000000000e+00 0.0000e+00 -1.0000e+00
        5  1    4    4  501    0 +6.6028737957e+00 +5.0540464913e+00 -2.6144131551e-01 9.5550865962e+00 4.7000000000e+00 0.0000e+00 1.0000e+00
       -5  1    4    4    0  502 -1.0300495837e-01 -3.0384802730e+01 -5.3227641319e+00 3.1203664288e+01 4.7000000000e+00 0.0000e+00 1.0000e+00
        5  1    4    4  502    0 -1.1829418096e+01 -1.4560461485e+01 -2.0543380031e+01 2.8214581944e+01 4.7000000000e+00 0.0000e+00 1.0000e+00
       -5  1    4    4    0  501 -2.2712429369e+01 +1.6529381303e+01 +5.8721910213e+01 6.5264290643e+01 4.7000000000e+00 0.0000e+00 1.0000e+00
</event>
<event>
10      1 +4.6527485e-10 2.40000000e+02 7.81860800e-03 1.03012300e-01
      -11 -1    0    0    0    0 +0.0000000000e+00 +0.0000000000e+00 +1.2000000000e+02 1.2000000000e+02 0.0000000000e+00 0.0000e+00 1.0000e+00
       11 -1    0    0    0    0 -0.0000000000e+00 -0.0000000000e+00 -1.2000000000e+02 1.2000000000e+02 0.0000000000e+00 0.0000e+00 -1.0000e+00
       23  2    1    2    0    0 -1.6217533345e+00 +2.6277021657e+01 +4.6710741897e+01 1.0397374056e+02 8.9081610707e+01 0.0000e+00 0.0000e+00
       25  2    1    2    0    0 +1.6217533345e+00 -2.6277021657e+01 -4.6710741897e+01 1.3602625944e+02 1.2501255096e+02 0.0000e+00 0.0000e+00
      -13  1    3    3    0    0 -4.3159978864e+01 +5.9870031980e+00 +9.4215367081e+00 4.4580189959e+01 0.0000000000e+00 0.0000e+00 -1.0000e+00
       13  1    3    3    0    0 +4.1538225530e+01 +2.0290018459e+01 +3.7289205189e+01 5.9393550600e+01 0.0000000000e+00 0.0000e+00 1.0000e+00
        5  1    4    4  501    0 +1.0455302065e+01 +2.5894462091e+01 -3.0349805415e+01 4.1509483217e+01 4.7000000000e+00 0.0000e+00 1.0000e+00
       -5  1    4    4    0  501 +8.9849088686e+00 -6.5721735746e+00 -3.4342896595e+01 3.6406683444e+01 4.7000000000e+00 0.0000e+00 1.0000e+00
        5  1    4    4  502    0 -1.6859001956e+01 -3.6901618324e+01 +4.1090268332e+00 4.1047892557e+01 4.7000000000e+00 0.0000e+00 1.0000e+00
       -5  1    4    4    0  502 -9.5945564321e-01 -8.6976918499e+00 +1.3872933279e+01 1.7062200222e+01 4.7000000000e+00 0.0000e+00 1.0000e+00
</event>
<event>
10      1 +4.6527485e-10 2.40000000e+02 7.81860800e-03 1.03012300e-01
      -11 -1    0    0    0    0 +0.0000000000e+00 +0.0000000000e+00 +1.2000000000e+02 1.2000000000e+02 0.0000000000e+00 0.0000e+00 1.0000e+00
       11 -1    0    0    0    0 -0.0000000000e+00 -0.0000000000e+00 -1.2000000000e+02 1.2000000000e+02 0.0000000000e+00 0.0000e+00 -1.0000e+00
       23  2    1    2    0    0 +4.3249916862e+01 +4.6292152766e+00 +2.8185850188e+01 1.0467914174e+02 9.0946663615e+01 0.0000e+00 0.0000e+00
       25  2    1    2    0    0 -4.3249916862e+01 -4.6292152766e+00 -2.8185850188e+01 1.3532085826e+02 1.2500123034e+02 0.0000e+00 0.0000e+00
      -13  1    3    3    0    0 -1.0284801786e+01 +1.7673041868e+00 +4.6783953487e+01 4.7933691864e+01 0.0000000000e+00 0.0000e+00 1.0000e+00
       13  1    3    3    0    0 +5.3534718648e+01 +2.8619110897e+00 -1.8598103298e+01 5.6745449880e+01 0.0000000000e+00 0.0000e+00 -1.0000e+00
        5  1    4    4  501    0 -2.8338616449e+00 -1.0838565639e+01 -6.3209835055e-01 1.2165312378e+01 4.7000000000e+00 0.0000e+00 -1.0000e+00
       -5  1    4    4    0  501 +1.1456717299e+01 -4.1108293220e+01 +6.9489910183e+00 4.3491684480e+01 4.7000000000e+00 0.0000e+00 1.0000e+00
        5  1    4    4  502    0 -2.9105365986e+01 +2.2477348699e+01 -2.3556766348e+01 4.3924534995e+01 4.7000000000e+00 0.0000e+00 1.0000e+00
       -5  1    4    4    0  502 -2.2767406531e+01 +2.4840294883e+01 -1.0945976508e+01 3.5739326403e+01 4.7000000000e+00 0.0000e+00 1.0000e+00
</event>
<event>
10      1 +4.6527485e-10 2.40000000e+02 7.81860800e-03 1.03012300e-01
      -11 -1    0    0    0    0 +0.0000000000e+00 +0.0000000000e+00 +1.2000000000e+02 1.2000000000e+02 0.0000000000e+00 0.0000e+00 1.0000e+00
       11 -1    0    0    0    0 -0.0000000000e+00 -0.0000000000e+00 -1.2000000000e+02 1.2000000000e+02 0.0000000000e+00 0.0000e+00 -1.0000e+00
       23  2    1    2    0    0 -1.9774550485e+01 -2.8540138903e+01 -3.7440043552e+01 1.0497278543e+02 9.1716718458e+01 0.0000e+00 0.0000e+00
       25  2    1    2    0    0 +1.9774550485e+01 +2.8540138903e+01 +3.7440043552e+01 1.3502721457e+02 1.2500007775e+02 0.0000e+00 0.0000e+00
      -11  1    3    3    0    0 +3.0608350446e+01 -1.4639721484e+01 +8.9494955418e+00 3.5089685559e+01 0.0000000000e+00 0.0000e+00 1.0000e+00
       11  1    3    3    0    0 -5.0382900931e+01 -1.3900417419e+01 -4.6389539093e+01 6.9883099874e+01 0.0000000000e+00 0.0000e+00 -1.0000e+00
        5  1    4    4  501    0 -1.8791998590e+01 -1.9592354197e+01 +2.1258777318e+01 3.4799786882e+01 4.7000000000e+00 0.0000e+00 -1.0000e+00
       -5  1    4    4    0  502 +2.3609274412e+00 -5.0828555896e+00 +2.5021037238e+00 7.7304542151e+00 4.7000000000e+00 0.0000e+00 -1.0000e+00
        5  1    4    4  502    0 +1.7412280715e+01 -4.5505080068e+00 +2.4350397960e+01 3.0641907963e+01 4.7000000000e+00 0.0000e+00 1.0000e+00
       -5  1    4    4    0  501 +1.8793340920e+01 +5.7765856697e+01 -1.0671235450e+01 6.1855065507e+01 4.7000000000e+00 0.0000e+00 1.0000e+00
</event>
<event>
10      1 +4.6527485e-10 2.40000000e+02 7.81860800e-03 1.03012300e-01
      -11 -1    0    0    0    0 +0.0000000000e+00 +0.0000000000e+00 +1.2000000000e+02 1.2000000000e+02 0.0000000000e+00 0.0000e+00 -1.0000e+00
       11 -1    0    0    0    0 -0.0000000000e+00 -0.0000000000e+00 -1.2000000000e+02 1.2000000000e+02 0.0000000000e+00 0.0000e+00 1.0000e+00
       23  2    1    2    0    0 -4.0060150818e+01 -9.4279406490e+00 -2.4501542951e+01 1.0613801414e+02 9.4716686435e+01 0.0000e+00 0.0000e+00
       25  2    1    2    0    0 +4.0060150818e+01 +9.4279406490e+00 +2.4501542951e+01 1.3386198586e+02 1.2500001562e+02 0.0000e+00 0.0000e+00
      -13  1    3    3    0    0 +2.2248376894e+01 -1.1928454182e+01 +1.7708939357e+01 3.0836420459e+01 0.0000000000e+00 0.0000e+00 -1.0000e+00
       13  1    3    3    0    0 -6.2308527712e+01 +2.5005135332e+00 -4.2210482308e+01 7.5301593676e+01 0.0000000000e+00 0.0000e+00 1.0000e+00
        5  1    4    4  501    0 +3.2177388790e+01 -2.2714332213e+00 -2.7211550118e+01 4.2462951122e+01 4.7000000000e+00 0.0000e+00 1.0000e+00
       -5  1    4    4    0  502 +1.3758581257e+00 +1.8213627985e+01 +4.2541297908e+01 4.6534731735e+01 4.7000000000e+00 0.0000e+00 -1.0000e+00
        5  1    4    4  502    0 -1.2826481835e+01 +5.1004837019e+00 +1.5186538369e+01 2.1053610567e+01 4.7000000000e+00 0.0000e+00 -1.0000e+00
       -5  1    4    4    0  501 +1.9333385737e+01 -1.1614737817e+01 -6.0147432085e+00 2.3810692440e+01 4.7000000000e+00 0.0000e+00 1.0000e+00
</event>
<event>
10      1 +4.6527485e-10 2.40000000e+02 7.81860800e-03 1.03012300e-01
      -11 -1    0    0    0    0 +0.0000000000e+00 +0.0000000000e+00 +1.2000000000e+02 1.2000000000e+02 0.0000000000e+00 0.0000e+00 1.0000e+00
       11 -1    0    0    0    0 -0.0000000000e+00 -0.0000000000e+00 -1.2000000000e+02 1.2000000000e+02 0.0000000000e+00 0.0000e+00 -1.0000e+00
       23  2    1    2    0    0 -5.1249367124e+00 +4.3520663420e+01 -2.7709176043e+01 1.0468151538e+02 9.0940134732e+01 0.0000e+00 0.0000e+00
       25  2    1    2    0    0 +5.1249367124e+00 -4.3520663420e+01 +2.7709176043e+01 1.3531848462e+02 1.2499192262e+02 0.0000e+00 0.0000e+00
      -13  1    3    3    0    0 +2.4366200967e+01 +5.1337727717e+00 -4.6505791626e+01 5.2752782174e+01 0.0000000000e+00 0.0000e+00 -1.0000e+00
       13  1    3    3    0    0 -2.9491137679e+01 +3.8386890648e+01 +1.8796615583e+01 5.1928733209e+01 0.0000000000e+00 0.0000e+00 1.0000e+00
        5  1    4    4  501    0 -7.9619050559e+00 -3.7446397992e+01 +3.1916971308e+01 5.0064036115e+01 4.7000000000e+00 0.0000e+00 -1.0000e+00
       -5  1    4    4    0  501 +1.0829279019e+00 -2.8811035727e+01 +1.7935599547e+01 3.4278626629e+01 4.7000000000e+00 0.0000e+00 -1.0000e+00
        5  1    4    4  502    0 +1.5330924311e+01 +2.6014285262e+01 -2.8505314225e+01 4.1790228726e+01 4.7000000000e+00 0.0000e+00 1.0000e+00
       -5  1    4    4    0  502 -3.3270104446e+00 -3.2775149634e+00 +6.3619194132e+00 9.1855931465e+00 4.7000000000e+00 0.0000e+00 1.0000e+00
</event>
<event>
10      1 +4.6527485e-10 2.40000000e+02 7.81860800e-03 1.03012300e-01
      -11 -1    0    0    0    0 +0.0000000000e+00 +0.0000000000e+00 +1.2000000000e+02 1.2000000000e+02 0.0000000000e+00 0.0000e+00 1.0000e+00
       11 -1    0    0    0    0 -0.0000000000e+00 -0.0000000000e+00 -1.2000000000e+02 1.2000000000e+02 0.0000000000e+00 0.0000e+00 -1.0000e+00
       23  2    1    2    0    0 +1.4622193555e+01 +4.2819248206e+01 +2.6258089153e+01 1.0449342337e+02 9.0454915405e+01 0.0000e+00 0.0000e+00
       25  2    1    2    0    0 -1.4622193555e+01 -4.2819248206e+01 -2.6258089153e+01 1.3550657663e+02 1.2500099400e+02 0.0000e+00 0.0000e+00
      -11  1    3    3    0    0 -1.7293350852e+01 +1.9275552951e+01 -2.7444639662e+01 3.7733475476e+01 0.0000000000e+00 0.0000e+00 -1.0000e+00
       11  1    3    3    0    0 +3.1915544407e+01 +2.3543695255e+01 +5.3702728815e+01 6.6759947897e+01 0.0000000000e+00 0.0000e+00 1.0000e+00
        5  1    4    4  501    0 +4.6534500495e+00 -1.5431130007e+01 +7.9088181113e+00 1.8558388254e+01 4.7000000000e+00 0.0000e+00 1.0000e+00
       -5  1    4    4    0  501 +5.5716566740e+00 +3.1358939845e+00 +8.5276129700e+00 1.1648492269e+01 4.7000000000e+00 0.0000e+00 1.0000e+00
        5  1    4    4  502    0 -1.4745026312e+01 -8.2641923792e+00 -6.7747661003e+01 6.9982485294e+01 4.7000000000e+00 0.0000e+00 1.0000e+00
       -5  1    4    4    0  502 -1.0102273967e+01 -2.2259819805e+01 +2.5053140769e+01 3.5317210810e+01 4.7000000000e+00 0.0000e+00 1.0000e+00
</event>
<event>
10      1 +4.6527485e-10 2.40000000e+02 7.81860800e-03 1.03012300e-01
      -11 -1    0    0    0    0 +0.0000000000e+00 +0.0000000000e+00 +1.2000000000e+02 1.2000000000e+02 0.0000000000e+00 0.0000e+00 1.0000e+00
       11 -1    0    0    0    0 -0.0000000000e+00 -0.0000000000e+00 -1.2000000000e+02 1.2000000000e+02 0.0000000000e+00 0.0000e+00 -1.0000e+00
       23  2    1    2    0    0 +3.6051715809e+01 +2.4230734495e+01 -2.5900516313e+01 1.0515732689e+02 9.2197461710e+01 0.0000e+00 0.0000e+00
       25  2    1    2    0    0 -3.6051715809e+01 -2.4230734495e+01 +2.5900516313e+01 1.3484267311e+02 1.2499942016e+02 0.0000e+00 0.0000e+00
      -13  1    3    3    0    0 +4.5762906414e+01 +5.3585731722e+01 -1.3011039964e+01 7.1658645037e+01 0.0000000000e+00 0.0000e+00 -1.0000e+00
       13  1    3    3    0    0 -9.7111906044e+00 -2.9354997227e+01 -1.2889476349e+01 3.3498681850e+01 0.0000000000e+00 0.0000e+00 1.0000e+00
        5  1    4    4  501    0 -4.1973707400e+00 -7.4807763427e+00 +1.7655171189e+00 9.9391642765e+00 4.7000000000e+00 0.0000e+00 1.0000e+00
       -5  1    4    4    0  501 -2.4014692797e+01 -4.4220970845e+01 +5.6482825659e+01 7.5793135092e+01 4.7000000000e+00 0.0000e+00 1.0000e+00
        5  1    4    4  502    0 +2.3784520457e+00 +1.7274994465e+01 -6.6154574645e+00 1.9233739766e+01 4.7000000000e+00 0.0000e+00 -1.0000e+00
       -5  1    4    4    0  502 -1.0218104318e+01 +1.0196018227e+01 -2.5732369001e+01 2.9876633979e+01 4.7000000000e+00 0.0000e+00 -1.0000e+00
</event>
<event>
10      1 +4.6527485e-10 2.40000000e+02 7.81860800e-03 1.03012300e-01
      -11 -1    0    0    0    0 +0.0000000000e+00 +0.0000000000e+00 +1.2000000000e+02 1.2000000000e+02 0.0000000000e+00 0.0000e+00 -1.0000e+00
       11 -1    0    0    0    0 -0.0000000000e+00 -0.0000000000e+00 -1.2000000000e+02 1.2000000000e+02 0.0000000000e+00 0.0000e+00 1.0000e+00
       23  2    1    2    0    0 +5.0178753770e+01 -8.0994722496e+00 +1.1405287387e+00 1.0505586259e+02 9.1934349825e+01 0.0000e+00 0.0000e+00
       25  2    1    2    0    0 -5.0178753770e+01 +8.0994722496e+00 -1.1405287387e+00 1.3494413741e+02 1.2500044254e+02 0.0000e+00 0.0000e+00
      -13  1    3    3    0    0 -1.8102048350e+00 +3.6381806078e+01 +3.4969307680e+00 3.6594277966e+01 0.0000000000e+00 0.0000e+00 -1.0000e+00
       13  1    3    3    0    0 +5.1988958605e+01 -4.4481278328e+01 -2.3564020293e+00 6.8461584622e+01 0.0000000000e+00 0.0000e+00 1.0000e+00
        5  1    4    4  501    0 -4.9999901453e+00 +1.2567382117e+01 -2.2375780967e+01 2.6565100576e+01 4.7000000000e+00 0.0000e+00 -1.0000e+00
       -5  1    4    4    0  501 +3.8367360048e+00 +3.1095485309e+01 -1.3474487044e+01 3.4428208651e+01 4.7000000000e+00 0.0000e+00 -1.0000e+00
        5  1    4    4  502    0 -4.8976922388e+01 -3.2916048416e+01 +3.4575342539e+01 6.8554718887e+01 4.7000000000e+00 0.0000e+00 1.0000e+00
       -5  1    4    4    0  502 -3.8577241250e-02 -2.6473467613e+00 +1.3439673226e-01 5.3961092983e+00 4.7000000000e+00 0.0000e+00 -1.0000e+00
</event>
<event>
10      1 +4.6527485e-10 2.40000000e+02 7.81860800e-03 1.03012300e-01
      -11 -1    0    0    0    0 +0.0000000000e+00 +0.0000000000e+00 +1.2000000000e+02 1.2000000000e+02 0.0000000000e+00 0.0000e+00 -1.0000e+00
       11 -1    0    0    0    0 -0.0000000000e+00 -0.0000000000e+00 -1.2000000000e+02 1.2000000000e+02 0.0000000000e+00 0.0000e+00 1.0000e+00
       23  2    1    2    0    0 -8.5413669029e+00 -2.5288783593e+01 -4.4569264592e+01 1.0463477410e+02 9.0826973310e+01 0.0000e+00 0.0000e+00
       25  2    1    2    0    0 +8.5413669029e+00 +2.5288783593e+01 +4.4569264592e+01 1.3536522590e+02 1.2499939005e+02 0.0000e+00 0.0000e+00
      -13  1    3    3    0    0 +3.0387641739e+01 -6.3296800517e+00 -5.2137766386e+01 6.0678005107e+01 0.0000000000e+00 0.0000e+00 1.0000e+00
       13  1    3    3    0    0 -3.8929008642e+01 -1.8959103541e+01 +7.5685017947e+00 4.3956768994e+01 0.0000000000e+00 0.0000e+00 -1.0000e+00
        5  1    4    4  501    0 -3.9797578726e+01 +6.5894706329e+00 +3.6185295241e+01 5.4394245903e+01 4.7000000000e+00 0.0000e+00 -1.0000e+00
       -5  1    4    4    0  502 +4.5629134896e+01 +8.7519472229e+00 +1.1521410311e+01 4.8098310023e+01 4.7000000000e+00 0.0000e+00 1.0000e+00
        5  1    4    4  502    0 +5.9105015198e+00 +1.5911393752e+01 -1.1577565298e+01 2.1076918598e+01 4.7000000000e+00 0.0000e+00 1.0000e+00
       -5  1    4    4    0  501 -3.2006907868e+00 -5.9640280151e+00 +8.4401243378e+00 1.1795751376e+01 4.7000000000e+00 0.0000e+00 -1.0000e+00
</event>
<event>
10      1 +4.6527485e-10 2.40000000e+02 7.81860800e-03 1.03012300e-01
      -11 -1    0    0    0    0 +0.0000000000e+00 +0.0000000000e+00 +1.2000000000e+02 1.2000000000e+02 0.0000000000e+00 0.0000e+00 1.0000e+00
       11 -1    0    0    0    0 -0.0000000000e+00 -0.0000000000e+00 -1.2000000000e+02 1.2000000000e+02 0.0000000000e+00 0.0000e+00 -1.0000e+00
       23  2    1    2    0    0 +3.3313784987e+01 -3.4882667708e+01 +2.1577582391e+01 1.0429046396e+02 8.9912735666e+01 0.0000e+00 0.0000e+00
       25  2    1    2    0    0 -3.3313784987e+01 +3.4882667708e+01 -2.1577582391e+01 1.3570953604e+02 1.2499950933e+02 0.0000e+00 0.0000e+00
      -13  1    3    3    0    0 +4.7093037336e+01 -2.1027650868e+01 +4.8652116105e+01 7.0900949698e+01 0.0000000000e+00 0.0000e+00 1.0000e+00
       13  1    3    3    0    0 -1.3779252349e+01 -1.3855016839e+01 -2.7074533714e+01 3.3389514264e+01 0.0000000000e+00 0.0000e+00 -1.0000e+00
        5  1    4    4  501    0 +1.6762416325e+00 -1.4623297738e+01 +7.2505607959e+00 1.7067842705e+01 4.7000000000e+00 0.0000e+00 1.0000e+00
       -5  1    4    4    0  501 +1.0328964265e+01 +2.4286577476e+00 +2.8053175711e+01 3.0358796892e+01 4.7000000000e+00 0.0000e+00 1.0000e+00
        5  1    4    4  502    0 -2.3100312817e+01 +2.6403503468e+01 -3.9322363678e+01 5.2906594417e+01 4.7000000000e+00 0.0000e+00 -1.0000e+00
       -5  1    4    4    0  502 -2.2218678068e+01 +2.0673804230e+01 -1.7558955220e+01 3.5376302023e+01 4.7000000000e+00 0.0000e+00 -1.0000e+00
</event>
<event>
10      1 +4.6527485e-10 2.40000000e+02 7.81860800e-03 1.03012300e-01
      -11 -1    0    0    0    0 +0.0000000000e+00 +0.0000000000e+00 +1.2000000000e+02 1.2000000000e+02 0.0000000000e+00 0.0000e+00 1.0000e+00
       11 -1    0    0    0    0 -0.0000000000e+00 -0.0000000000e+00 -1.2000000000e+02 1.2000000000e+02 0.0000000000e+00 0.0000e+00 -1.0000e+00
       23  2    1    2    0    0 -4.4217798942e+01 -1.8984873848e+01 +1.6131854337e+01 1.0509108794e+02 9.2023153938e+01 0.0000e+00 0.0000e+00
       25  2    1    2    0    0 +4.4217798942e+01 +1.8984873848e+01 -1.6131854337e+01 1.3490891206e+02 1.2499815459e+02 0.0000e+00 0.0000e+00
      -13  1    3    3    0    0 -1.2203982071e+01 +3.1619844126e+01 -1.5612531861e+01 3.7316254797e+01 0.0000000000e+00 0.0000e+00 1.0000e+00
       13  1    3    3    0    0 -3.2013816871e+01 -5.0604717974e+01 +3.1744386198e+01 6.7774833139e+01 0.0000000000e+00 0.0000e+00 -1.0000e+00
        5  1    4    4  501    0 -1.8550714990e+01 +1.1128814875e+01 -8.6005019120e+00 2.3749488001e+01 4.7000000000e+00 0.0000e+00 1.0000e+00
       -5  1    4    4    0  501 -1.4617578652e+01 +2.1508394793e+01 +7.8485121567e+00 2.7567622228e+01 4.7000000000e+00 0.0000e+00 1.0000e+00
        5  1    4    4  502    0 +6.4176568626e+01 -8.3481048211e+00 -4.4506671738e+00 6.5040151083e+01 4.7000000000e+00 0.0000e+00 1.0000e+00
       -5  1    4    4    0  502 +1.3209523958e+01 -5.3042309984e+00 -1.0929197408e+01 1.8551650753e+01 4.7000000000e+00 0.0000e+00 -1.0000e+00
</event>
<event>
10      1 +4.6527485e-10 2.40000000e+02 7.81860800e-03 1.03012300e-01
      -11 -1    0    0    0    0 +0.0000000000e+00 +0.0000000000e+00 +1.2000000000e+02 1.2000000000e+02 0.0000000000e+00 0.0000e+00 -1.0000e+00
       11 -1    0    0    0    0 -0.0000000000e+00 -0.0000000000e+00 -1.2000000000e+02 1.2000000000e+02 0.0000000000e+00 0.0000e+00 1.0000e+00
       23  2    1    2    0    0 -2.6897158427e+01 +1.1491096544e+01 +4.2264686089e+01 1.0484581166e+02 9.1382920180e+01 0.0000e+00 0.0000e+00
       25  2    1    2    0    0 +2.6897158427e+01 -1.1491096544e+01 -4.2264686089e+01 1.3515418834e+02 1.2499939402e+02 0.0000e+00 0.0000e+00
      -11  1    3    3    0    0 -2.7380064769e+01 -1.8723201235e+00 +6.9380969275e+01 7.4611610537e+01 0.0000000000e+00 0.0000e+00 -1.0000e+00
       11  1    3    3    0    0 +4.8290634240e-01 +1.3363416667e+01 -2.7116283186e+01 3.0234201120e+01 0.0000000000e+00 0.0000e+00 1.0000e+00
        5  1    4    4  501    0 -1.1140476257e+01 +2.5655361114e+01 -1.0124294045e+01 3.0114765399e+01 4.7000000000e+00 0.0000e+00 -1.0000e+00
       -5  1    4    4    0  502 +4.2294647277e+01 -3.3892056573e+01 -3.4857250614e+01 6.4611350454e+01 4.7000000000e+00 0.0000e+00 1.0000e+00
        5  1    4    4  502    0 +5.0919205913e+00 -7.0189917169e+00 -1.5918717184e+01 1.8726704376e+01 4.7000000000e+00 0.0000e+00 1.0000e+00
       -5  1    4    4    0  501 -9.3489331843e+00 +3.7645906322e+00 +1.8635575754e+01 2.1701368114e+01 4.7000000000e+00 0.0000e+00 -1.0000e+00
</event>
<event>
10      1 +4.6527485e-10 2.40000000e+02 7.81860800e-03 1.03012300e-01
      -11 -1    0    0    0    0 +0.0000000000e+00 +0.0000000000e+00 +1.2000000000e+02 1.2000000000e+02 0.0000000000e+00 0.0000e+00 1.0000e+00
       11 -1    0    0    0    0 -0.0000000000e+00 -0.0000000000e+00 -1.2000000000e+02 1.2000000000e+02 0.0000000000e+00 0.0000e+00 -1.0000e+00
       23  2    1    2    0    0 -4.3619383487e+01 +4.1358088919e+00 -2.3988300738e+01 1.0538917647e+02 9.2799161709e+01 0.0000e+00 0.0000e+00
       25  2    1    2    0    0 +4.3619383487e+01 -4.1358088919e+00 +2.3988300738e+01 1.3461082353e+02 1.2499951883e+02 0.0000e+00 0.0000e+00
      -11  1    3    3    0    0 -4.2247448937e+01 -4.9239187579e+00 -5.7005168973e+01 7.1124406552e+01 0.0000000000e+00 0.0000e+00 -1.0000e+00
       11  1    3    3    0    0 -1.3719345500e+00 +9.0597276499e+00 +3.3016868236e+01 3.4264769919e+01 0.0000000000e+00 0.0000e+00 1.0000e+00
        5  1    4    4  501    0 -2.3524984896e+01 -1.9072594187e+00 -1.0563189153e+01 2.6281809640e+01 4.7000000000e+00 0.0000e+00 -1.0000e+00
       -5  1    4    4    0  502 +6.4381622060e+01 +4.9577597596e+00 +1.1223939389e+01 6.5708747182e+01 4.7000000000e+00 0.0000e+00 1.0000e+00
        5  1    4    4  502    0 +1.0164001188e+01 -1.2203315311e+01 +2.7163782353e+01 3.1814916257e+01 4.7000000000e+00 0.0000e+00 1.0000e+00
       -5  1    4    4    0  501 -7.4012548641e+00 +5.0170060782e+00 -3.8362318509e+00 1.0805350451e+01 4.7000000000e+00 0.0000e+00 1.0000e+00
</event>
<event>
10      1 +4.6527485e-10 2.40000000e+02 7.81860800e-03 1.03012300e-01
      -11 -1    0    0    0    0 +0.0000000000e+00 +0.0000000000e+00 +1.2000000000e+02 1.2000000000e+02 0.0000000000e+00 0.0000e+00 -1.0000e+00
       11 -1    0    0    0    0 -0.0000000000e+00 -0.0000000000e+00 -1.2000000000e+02 1.2000000000e+02 0.0000000000e+00 0.0000e+00 1.0000e+00
       23  2    1    2    0    0 +1.6300733492e+01 +1.8074513504e+01 -4.5057855584e+01 1.0491453767e+02 9.1566631007e+01 0.0000e+00 0.0000e+00
       25  2    1    2    0    0 -1.6300733492e+01 -1.8074513504e+01 +4.5057855584e+01 1.3508546233e+02 1.2500187931e+02 0.0000e+00 0.0000e+00
      -13  1    3    3    0    0 +2.3492909511e+01 +3.0175953000e+01 -6.7989372897e+01 7.8006793061e+01 0.0000000000e+00 0.0000e+00 1.0000e+00
       13  1    3    3    0    0 -7.1921760186e+00 -1.2101439496e+01 +2.2931517312e+01 2.6907744610e+01 0.0000000000e+00 0.0000e+00 -1.0000e+00
        5  1    4    4  501    0 -1.2878210303e-01 +4.7251367731e+00 -8.3480635476e+00 1.0682867937e+01 4.7000000000e+00 0.0000e+00 -1.0000e+00
       -5  1    4    4    0  501 -2.5391274459e+01 +1.8682039949e+01 -1.9503310580e+01 3.7365820730e+01 4.7000000000e+00 0.0000e+00 -1.0000e+00
        5  1    4    4  502    0 +3.6309214210e+00 -6.6171255315e+00 +4.6310542022e+00 1.0025298185e+01 4.7000000000e+00 0.0000e+00 -1.0000e+00
       -5  1    4    4    0  502 +5.5884016486e+00 -3.4864564695e+01 +6.8278175509e+01 7.7011475478e+01 4.7000000000e+00 0.0000e+00 1.0000e+00
</event>
<event>
10      1 +4.6527485e-10 2.40000000e+02 7.81860800e-03 1.03012300e-01
      -11 -1    0    0    0    0 +0.0000000000e+00 +0.0000000000e+00 +1.2000000000e+02 1.2000000000e+02 0.0000000000e+00 0.0000e+00 -1.0000e+00
       11 -1    0    0    0    0 -0.0000000000e+00 -0.0000000000e+00 -1.2000000000e+02 1.2000000000e+02 0.0000000000e+00 0.0000e+00 1.0000e+00
       23  2    1    2    0    0 -8.3676841551e+00 +5.0654433284e+01 +1.1179529518e+01 1.0440972272e+02 9.0224822356e+01 0.0000e+00 0.0000e+00
       25  2    1    2    0    0 +8.3676841551e+00 -5.0654433284e+01 -1.1179529518e+01 1.3559027728e+02 1.2499540657e+02 0.0000e+00 0.0000e+00
      -13  1    3    3    0    0 +3.0255704078e+01 +2.7385400827e+01 +3.4686920321e+01 5.3558848467e+01 0.0000000000e+00 0.0000e+00 -1.0000e+00
       13  1    3    3    0    0 -3.8623388233e+01 +2.3269032458e+01 -2.3507390804e+01 5.0850874255e+01 0.0000000000e+00 0.0000e+00 1.0000e+00
        5  1    4    4  501    0 +2.1234832782e+01 +2.2324313942e+00 -9.0373747812e-01 2.1881695881e+01 4.7000000000e+00 0.0000e+00 -1.0000e+00
       -5  1    4    4    0  501 +7.4869024517e+00 +2.6839579316e+01 -7.8078926914e+00 2.9316717321e+01 4.7000000000e+00 0.0000e+00 -1.0000e+00
        5  1    4    4  502    0 -1.7090168239e-01 -5.4546754118e+00 -9.8185541458e-01 7.2688878990e+00 4.7000000000e+00 0.0000e+00 -1.0000e+00
       -5  1    4    4    0  502 -2.0183149396e+01 -7.4271768583e+01 -1.4860439334e+00 7.7122976178e+01 4.7000000000e+00 0.0000e+00 1.0000e+00
</event>
<event>
10      1 +4.6527485e-10 2.40000000e+02 7.81860800e-03 1.03012300e-01
      -11 -1    0    0    0    0 +0.0000000000e+00 +0.0000000000e+00 +1.2000000000e+02 1.2000000000e+02 0.0000000000e+00 0.0000e+00 -1.0000e+00
       11 -1    0    0    0    0 -0.0000000000e+00 -0.0000000000e+00 -1.2000000000e+02 1.2000000000e+02 0.0000000000e+00 0.0000e+00 1.0000e+00
       23  2    1    2    0    0 -7.8287678940e-01 +1.1696867820e+01 +5.1774478469e+01 1.0419430742e+02 8.9657277820e+01 0.0000e+00 0.0000e+00
       25  2    1    2    0    0 +7.8287678940e-01 -1.1696867820e+01 -5.1774478469e+01 1.3580569258e+02 1.2500063961e+02 0.0000e+00 0.0000e+00
      -13  1    3    3    0    0 +4.2514322158e+01 -2.7960159454e+00 +3.6336197222e+01 5.5996468838e+01 0.0000000000e+00 0.0000e+00 1.0000e+00
       13  1    3    3    0    0 -4.3297198948e+01 +1.4492883765e+01 +1.5438281246e+01 4.8197838586e+01 0.0000000000e+00 0.0000e+00 -1.0000e+00
        5  1    4    4  501    0 -2.1564009849e+01 -2.8615940416e+01 -1.2506547582e+00 3.6159821681e+01 4.7000000000e+00 0.0000e+00 -1.0000e+00
       -5  1    4    4    0  501 -1.5573205381e+01 -8.8357301815e+00 +9.7617640358e+00 2.0927897428e+01 4.7000000000e+00 0.0000e+00 -1.0000e+00
        5  1    4    4  502    0 +1.5541551970e+01 +1.4540878413e+01 -4.2151154824e+01 4.7452996066e+01 4.7000000000e+00 0.0000e+00 1.0000e+00
       -5  1    4    4    0  502 +2.2378540050e+01 +1.1213924364e+01 -1.8134432922e+01 3.1264977400e+01 4.7000000000e+00 0.0000e+00 1.0000e+00
</event>
<event>
10      1 +4.6527485e-10 2.40000000e+02 7.81860800e-03 1.03012300e-01
      -11 -1    0    0    0    0 +0.0000000000e+00 +0.0000000000e+00 +1.2000000000e+02 1.2000000000e+02 0.0000000000e+00 0.0000e+00 -1.0000e+00
       11 -1    0    0    0    0 -0.0000000000e+00 -0.0000000000e+00 -1.2000000000e+02 1.2000000000e+02 0.0000000000e+00 0.0000e+00 1.0000e+00
       23  2    1    2    0    0 +3.0155132652e+01 +1.9242023146e+01 -3.7621282581e+01 1.0465775389e+02 9.0875172992e+01 0.0000e+00 0.0000e+00
       25  2    1    2    0    0 -3.0155132652e+01 -1.9242023146e+01 +3.7621282581e+01 1.3534224611e+02 1.2499030042e+02 0.0000e+00 0.0000e+00
      -13  1    3    3    0    0 -1.0711793411e+01 +4.0860941277e+01 -4.0253665860e+01 5.8349949917e+01 0.0000000000e+00 0.0000e+00 1.0000e+00
       13  1    3    3    0    0 +4.0866926064e+01 -2.1618918131e+01 +2.6323832796e+00 4.6307803973e+01 0.0000000000e+00 0.0000e+00 -1.0000e+00
        5  1    4    4  501    0 +1.7499692379e+01 +3.1292270738e+01 +7.8448745826e+00 3.7001047262e+01 4.7000000000e+00 0.0000e+00 1.0000e+00
       -5  1    4    4    0  501 -3.1159409276e+00 +1.2386346034e+01 +5.1088791409e-01 1.3619165261e+01 4.7000000000e+00 0.0000e+00 1.0000e+00
        5  1    4    4  502    0 -4.0357534423e+01 -5.2274982958e+01 +1.9663412733e+01 6.9066230737e+01 4.7000000000e+00 0.0000e+00 -1.0000e+00
       -5  1    4    4    0  502 -4.1813496815e+00 -1.0645656960e+01 +9.6021073508e+00 1.5655802849e+01 4.7000000000e+00 0.0000e+00 -1.0000e+00
</event>
<event>
10      1 +4.6527485e-10 2.40000000e+02 7.81860800e-03 1.03012300e-01
      -11 -1    0    0    0    0 +0.0000000000e+00 +0.0000000000e+00 +1.2000000000e+02 1.2000000000e+02 0.0000000000e+00 0.0000e+00 -1.0000e+00
       11 -1    0    0    0    0 -0.0000000000e+00 -0.0000000000e+00 -1.2000000000e+02 1.2000000000e+02 0.0000000000e+00 0.0000e+00 1.0000e+00
       23  2    1    2    0    0 +4.9409383518e+01 +9.9042858735e-01 -7.0102808596e+00 1.0540303672e+02 9.2835273385e+01 0.0000e+00 0.0000e+00
       25  2    1    2    0    0 -4.9409383518e+01 -9.9042858735e-01 +7.0102808596e+00 1.3459696328e+02 1.2499972143e+02 0.0000e+00 0.0000e+00
      -11  1    3    3    0    0 +3.5178308495e+01 -2.6333053086e+01 +3.2965751148e+01 5.4933449028e+01 0.0000000000e+00 0.0000e+00 -1.0000e+00
       11  1    3    3    0    0 +1.4231075024e+01 +2.7323481673e+01 -3.9976032008e+01 5.0469587696e+01 0.0000000000e+00 0.0000e+00 1.0000e+00
        5  1    4    4  501    0 -3.6803955651e+01 +3.2364937084e+00 +2.6619651778e+01 4.5778836856e+01 4.7000000000e+00 0.0000e+00 -1.0000e+00
       -5  1    4    4    0  501 -1.8692814582e+01 +1.2273891537e+01 +2.4870036053e+01 3.3773931126e+01 4.7000000000e+00 0.0000e+00 -1.0000e+00
        5  1    4    4  502    0 +1.1111086453e+01 -1.7234260696e+00 -3.2802188904e+01 3.4992856936e+01 4.7000000000e+00 0.0000e+00 1.0000e+00
       -5  1    4    4    0  502 -5.0236997391e+00 -1.4777387764e+01 -1.1677218067e+01 2.0051338359e+01 4.7000000000e+00 0.0000e+00 1.0000e+00
</event>
<event>
10      1 +4.6527485e-10 2.40000000e+02 7.81860800e-03 1.03012300e-01
      -11 -1    0    0    0    0 +0.0000000000e+00 +0.0000000000e+00 +1.2000000000e+02 1.2000000000e+02 0.0000000000e+00 0.0000e+00 -1.0000e+00
       11 -1    0    0    0    0 -0.0000000000e+00 -0.0000000000e+00 -1.2000000000e+02 1.2000000000e+02 0.0000000000e+00 0.0000e+00 1.0000e+00
       23  2    1    2    0    0 +3.1204252470e+01 -3.6666482432e+01 -3.9905952397e+00 1.0598689425e+02 9.4335362390e+01 0.0000e+00 0.0000e+00
       25  2    1    2    0    0 -3.1204252470e+01 +3.6666482432e+01 +3.9905952397e+00 1.3401310575e+02 1.2500180541e+02 0.0000e+00 0.0000e+00
      -11  1    3    3    0    0 +3.3834282643e+01 -5.6953306114e+01 -3.0145846339e+01 7.2781933272e+01 0.0000000000e+00 0.0000e+00 1.0000e+00
       11  1    3    3    0    0 -2.6300301731e+00 +2.0286823682e+01 +2.6155251099e+01 3.3204960983e+01 0.0000000000e+00 0.0000e+00 -1.0000e+00
        5  1    4    4  501    0 +1.8557561324e-01 +1.0201713785e+01 -2.3928476256e-01 1.1236398874e+01 4.7000000000e+00 0.0000e+00 1.0000e+00
       -5  1    4    4    0  501 -4.3945354638e+01 +4.3836196910e+01 -3.5364653777e+01 7.1592982132e+01 4.7000000000e+00 0.0000e+00 1.0000e+00
        5  1    4    4  502    0 +5.5530297723e+00 -2.2153906852e+00 -3.7401428226e-01 7.6140647636e+00 4.7000000000e+00 0.0000e+00 1.0000e+00
       -5  1    4    4    0  502 +7.0024967826e+00 -1.5156037578e+01 +3.9968548061e+01 4.3569659975e+01 4.7000000000e+00 0.0000e+00 1.0000e+00
</event>
<event>
10      1 +4.6527485e-10 2.40000000e+02 7.81860800e-03 1.03012300e-01
      -11 -1    0    0    0    0 +0.0000000000e+00 +0.0000000000e+00 +1.2000000000e+02 1.2000000000e+02 0.0000000000e+00 0.0000e+00 1.0000e+00
       11 -1    0    0    0    0 -0.0000000000e+00 -0.0000000000e+00 -1.2000000000e+02 1.2000000000e+02 0.0000000000e+00 0.0000e+00 -1.0000e+00
       23  2    1    2    0    0 -4.9313600094e+01 -9.5064830821e+00 +1.3632187491e+00 1.0528275624e+02 9.2522408209e+01 0.0000e+00 0.0000e+00
       25  2    1    2    0    0 +4.9313600094e+01 +9.5064830821e+00 -1.3632187491e+00 1.3471724376e+02 1.2499869210e+02 0.0000e+00 0.0000e+00
      -13  1    3    3    0    0 -4.6609282835e+01 +1.6780592172e+01 +3.6345558084e+01 6.1441135344e+01 0.0000000000e+00 0.0000e+00 1.0000e+00
       13  1    3    3    0    0 -2.7043172591e+00 -2.6287075254e+01 -3.4982339334e+01 4.3841620893e+01 0.0000000000e+00 0.0000e+00 -1.0000e+00
        5  1    4    4  501    0 +1.5949414663e+01 +1.1423653082e+01 +1.0505900939e+01 2.2745277144e+01 4.7000000000e+00 0.0000e+00 -1.0000e+00
       -5  1    4    4    0  502 +6.7533069082e-01 -2.6829149825e+01 -1.6729719667e+01 3.1972376703e+01 4.7000000000e+00 0.0000e+00 -1.0000e+00
        5  1    4    4  502    0 -9.4431000924e+00 -1.7031266320e+01 -1.1216416256e+00 2.0064502280e+01 4.7000000000e+00 0.0000e+00 -1.0000e+00
       -5  1    4    4    0  501 +4.2131954832e+01 +4.1943246145e+01 +5.9822416046e+00 5.9935087635e+01 4.7000000000e+00 0.0000e+00 -1.0000e+00
</event>
<event>
10      1 +4.6527485e-10 2.40000000e+02 7.81860800e-03 1.03012300e-01
      -11 -1    0    0    0    0 +0.0000000000e+00 +0.0000000000e+00 +1.2000000000e+02 1.2000000000e+02 0.0000000000e+00 0.0000e+00 1.0000e+00
       11 -1    0    0    0    0 -0.0000000000e+00 -0.0000000000e+00 -1.2000000000e+02 1.2000000000e+02 0.0000000000e+00 0.0000e+00 -1.0000e+00
       23  2    1    2    0    0 -3.0167985157e+01 -3.8899770050e+01 -1.6161560995e+01 1.0469067148e+02 9.0970551300e+01 0.0000e+00 0.0000e+00
       25  2    1    2    0    0 +3.0167985157e+01 +3.8899770050e+01 +1.6161560995e+01 1.3530932852e+02 1.2499647551e+02 0.0000e+00 0.0000e+00
      -11  1    3    3    0    0 -3.1307638161e+01 -4.7206758349e+01 -4.6455245536e+01 7.3258010340e+01 0.0000000000e+00 0.0000e+00 -1.0000e+00
       11  1    3    3    0    0 +1.1396530039e+00 +8.3069882992e+00 +3.0293684541e+01 3.1432661145e+01 0.0000000000e+00 0.0000e+00 1.0000e+00
        5  1    4    4  501    0 +4.5612632834e+00 +5.9367381614e+01 +4.3658877491e+01 7.3982962270e+01 4.7000000000e+00 0.0000e+00 1.0000e+00
       -5  1    4    4    0  501 -9.4018684232e-01 +5.8416303594e+00 +2.9805816908e+00 8.1229590526e+00 4.7000000000e+00 0.0000e+00 -1.0000e+00
        5  1    4    4  502    0 +1.4397176906e+01 -1.2638026770e+00 -1.3008016599e+01 2.0004359423e+01 4.7000000000e+00 0.0000e+00 -1.0000e+00
       -5  1    4    4    0  502 +1.2149731810e+01 -2.5045439246e+01 -1.7469881588e+01 3.3199047769e+01 4.7000000000e+00 0.0000e+00 -1.0000e+00
</event>
<event>
10      1 +4.6527485e-10 2.40000000e+02 7.81860800e-03 1.03012300e-01
      -11 -1    0    0    0    0 +0.0000000000e+00 +0.0000000000e+00 +1.2000000000e+02 1.2000000000e+02 0.0000000000e+00 0.0000e+00 1.0000e+00
       11 -1    0    0    0    0 -0.0000000000e+00 -0.0000000000e+00 -1.2000000000e+02 1.2000000000e+02 0.0000000000e+00 0.0000e+00 -1.0000e+00
       23  2    1    2    0    0 +3.9614977696e+01 -2.1378312266e+01 -2.0557971794e+01 1.0556232150e+02 9.3243738790e+01 0.0000e+00 0.0000e+00
       25  2    1    2    0    0 -3.9614977696e+01 +2.1378312266e+01 +2.0557971794e+01 1.3443767850e+02 1.2499792199e+02 0.0000e+00 0.0000e+00
      -13  1    3    3    0    0 +6.9630147849e+01 -2.0883035606e+01 -8.4134791786e+00 7.3179541523e+01 0.0000000000e+00 0.0000e+00 -1.0000e+00
       13  1    3    3    0    0 -3.0015170153e+01 -4.9527665974e-01 -1.2144492615e+01 3.2382779979e+01 0.0000000000e+00 0.0000e+00 1.0000e+00
        5  1    4    4  501    0 +1.3045185732e+01 -1.5283417303e+01 +2.1525562940e+01 2.9819449611e+01 4.7000000000e+00 0.0000e+00 1.0000e+00
       -5  1    4    4    0  502 -2.0100824080e+01 +9.0320535553e+00 -1.4137112985e+01 2.6600170745e+01 4.7000000000e+00 0.0000e+00 -1.0000e+00
        5  1    4    4  502    0 -3.8404323932e+01 +9.2735032697e-02 -1.1425233431e+01 4.0342615872e+01 4.7000000000e+00 0.0000e+00 -1.0000e+00
       -5  1    4    4    0  501 +5.8449845836e+00 +2.7536940981e+01 +2.4594755271e+01 3.7675442269e+01 4.7000000000e+00 0.0000e+00 1.0000e+00
</event>
<event>
10      1 +4.6527485e-10 2.40000000e+02 7.81860800e-03 1.03012300e-01
      -11 -1    0    0    0    0 +0.0000000000e+00 +0.0000000000e+00 +1.2000000000e+02 1.2000000000e+02 0.0000000000e+00 0.0000e+00 1.0000e+00
       11 -1    0    0    0    0 -0.0000000000e+00 -0.0000000000e+00 -1.2000000000e+02 1.2000000000e+02 0.0000000000e+00 0.0000e+00 -1.0000e+00
       23  2    1    2    0    0 -3.2970576701e+01 +3.2015890698e+01 -1.8375339774e+01 1.0555279842e+02 9.3229093946e+01 0.0000e+00 0.0000e+00
       25  2    1    2    0    0 +3.2970576701e+01 -3.2015890698e+01 +1.8375339774e+01 1.3444720158e+02 1.2500528275e+02 0.0000e+00 0.0000e+00
      -13  1    3    3    0    0 -1.3911110441e+01 +6.4213798027e+01 -1.8040724317e+01 6.8135149406e+01 0.0000000000e+00 0.0000e+00 1.0000e+00
       13  1    3    3    0    0 -1.9059466259e+01 -3.2197907329e+01 -3.3461545730e-01 3.7417649017e+01 0.0000000000e+00 0.0000e+00 -1.0000e+00
        5  1    4    4  501    0 +8.5258321826e+00 -1.0898558586e+00 +8.1002342605e+00 1.2711467078e+01 4.7000000000e+00 0.0000e+00 -1.0000e+00
       -5  1    4    4    0  502 +6.9557920785e+00 -2.4505189373e+01 -4.4045671386e+01 5.1097930658e+01 4.7000000000e+00 0.0000e+00 1.0000e+00
        5  1    4    4  502    0 +2.2931895225e+01 -8.1080023563e+00 +5.7489755796e+01 6.2600108165e+01 4.7000000000e+00 0.0000e+00 1.0000e+00
       -5  1    4    4    0  501 -5.4429427855e+00 +1.6871568902e+00 -3.1689788962e+00 8.0376956762e+00 4.7000000000e+00 0.0000e+00 -1.0000e+00
</event>
<event>
10      1 +4.6527485e-10 2.40000000e+02 7.81860800e-03 1.03012300e-01
      -11 -1    0    0    0    0 +0.0000000000e+00 +0.0000000000e+00 +1.2000000000e+02 1.2000000000e+02 0.0000000000e+00 0.0000e+00 1.0000e+00
       11 -1    0    0    0    0 -0.0000000000e+00 -0.0000000000e+00 -1.2000000000e+02 1.2000000000e+02 0.0000000000e+00 0.0000e+00 -1.0000e+00
       23  2    1    2    0    0 +1.4984265287e+01 -4.8003235289e+01 +1.1122419041e+01 1.0480523259e+02 9.1277542520e+01 0.0000e+00 0.0000e+00
       25  2    1    2    0    0 -1.4984265287e+01 +4.8003235289e+01 -1.1122419041e+01 1.3519476741e+02 1.2500031250e+02 0.0000e+00 0.0000e+00
      -11  1    3    3    0    0 +1.6646554114e+01 -3.5458210305e+01 -3.7701955373e+01 5.4367544370e+01 0.0000000000e+00 0.0000e+00 -1.0000e+00
       11  1    3    3    0    0 -1.6622888268e+00 -1.2545024984e+01 +4.8824374414e+01 5.0437688219e+01 0.0000000000e+00 0.0000e+00 1.0000e+00
        5  1    4    4  501    0 -5.1867838434e+00 +1.8777186030e+01 -2.8138474854e+01 3.4544886871e+01 4.7000000000e+00 0.0000e+00 -1.0000e+00
       -5  1    4    4    0  501 +1.5203879514e+01 +3.4077134131e+00 -3.1649822472e+01 3.5588927007e+01 4.7000000000e+00 0.0000e+00 -1.0000e+00
        5  1    4    4  502    0 -2.0244728336e+01 +2.6663188422e+01 +2.9937337721e+01 4.5156492690e+01 4.7000000000e+00 0.0000e+00 1.0000e+00
       -5  1    4    4    0  502 -4.7566326212e+00 -8.4485257614e-01 +1.8728540564e+01 1.9904460843e+01 4.7000000000e+00 0.0000e+00 1.0000e+00
</event>
<event>
10      1 +4.6527485e-10 2.40000000e+02 7.81860800e-03 1.03012300e-01
      -11 -1    0    0    0    0 +0.0000000000e+00 +0.0000000000e+00 +1.2000000000e+02 1.2000000000e+02 0.0000000000e+00 0.0000e+00 -1.0000e+00
       11 -1    0    0    0    0 -0.0000000000e+00 -0.0000000000e+00 -1.2000000000e+02 1.2000000000e+02 0.0000000000e+00 0.0000e+00 1.0000e+00
       23  2    1    2    0    0 +4.8487269435e+01 -9.9788036956e-01 +1.9633320106e+01 1.0449143688e+02 9.0448781423e+01 0.0000e+00 0.0000e+00
       25  2    1    2    0    0 -4.8487269435e+01 +9.9788036956e-01 -1.9633320106e+01 1.3550856312e+02 1.2500036943e+02 0.0000e+00 0.0000e+00
      -13  1    3    3    0    0 +5.7609287342e+01 -1.0651056132e+01 -2.0616252923e+01 6.2107204649e+01 0.0000000000e+00 0.0000e+00 1.0000e+00
       13  1    3    3    0    0 -9.1220179067e+00 +9.6531757620e+00 +4.0249573029e+01 4.2384232233e+01 0.0000000000e+00 0.0000e+00 -1.0000e+00
        5  1    4    4  501    0 +1.0640258314e+01 +2.3284253523e+01 -6.3566630420e+00 2.6793072316e+01 4.7000000000e+00 0.0000e+00 -1.0000e+00
       -5  1    4    4    0  502 -1.4154722076e+01 -1.4554237663e+01 -3.8413662568e+00 2.1190282814e+01 4.7000000000e+00 0.0000e+00 -1.0000e+00
        5  1    4    4  502    0 -6.1415347114e+01 -1.8628249086e+01 -1.5820233362e+01 6.6266328620e+01 4.7000000000e+00 0.0000e+00 -1.0000e+00
       -5  1    4    4    0  501 +1.6442541441e+01 +1.0896113596e+01 +6.3849425546e+00 2.1258879367e+01 4.7000000000e+00 0.0000e+00 -1.0000e+00
</event>
<event>
10      1 +4.6527485e-10 2.40000000e+02 7.81860800e-03 1.03012300e-01
      -11 -1    0    0    0    0 +0.0000000000e+00 +0.0000000000e+00 +1.2000000000e+02 1.2000000000e+02 0.0000000000e+00 0.0000e+00 1.0000e+00
       11 -1    0    0    0    0 -0.0000000000e+00 -0.0000000000e+00 -1.2000000000e+02 1.2000000000e+02 0.0000000000e+00 0.0000e+00 -1.0000e+00
       23  2    1    2    0    0 +2.6888853213e+01 -2.5786961540e+01 +3.4411379311e+01 1.0511326659e+02 9.2068876251e+01 0.0000e+00 0.0000e+00
       25  2    1    2    0    0 -2.6888853213e+01 +2.5786961540e+01 -3.4411379311e+01 1.3488673341e+02 1.2498923958e+02 0.0000e+00 0.0000e+00
      -11  1    3    3    0    0 +2.9762772631e+01 -4.7931498296e+01 -8.1925134302e+00 5.7012002595e+01 0.0000000000e+00 0.0000e+00 -1.0000e+00
       11  1    3    3    0    0 -2.8739194180e+00 +2.2144536757e+01 +4.2603892741e+01 4.8101263993e+01 0.0000000000e+00 0.0000e+00 1.0000e+00
        5  1    4    4  501    0 -4.3872213015e+01 +2.9204297737e+01 +1.4681223913e+01 5.4911660116e+01 4.7000000000e+00 0.0000e+00 1.0000e+00
       -5  1    4    4    0  502 +7.8257789820e+00 +5.4558606343e+00 -7.0557567503e+00 1.2762559902e+01 4.7000000000e+00 0.0000e+00 -1.0000e+00
        5  1    4    4  502    0 +2.4668831556e+01 -5.7583556032e+00 -4.3590490084e+01 5.0635271652e+01 4.7000000000e+00 0.0000e+00 -1.0000e+00
       -5  1    4    4    0  501 -1.5511250736e+01 -3.1148412285e+00 +1.5536436103e+00 1.6577241741e+01 4.7000000000e+00 0.0000e+00 1.0000e+00
</event>
<event>
10      1 +4.6527485e-10 2.40000000e+02 7.81860800e-03 1.03012300e-01
      -11 -1    0    0    0    0 +0.0000000000e+00 +0.0000000000e+00 +1.2000000000e+02 1.2000000000e+02 0.0000000000e+00 0.0000e+00 1.0000e+00
       11 -1    0    0    0    0 -0.0000000000e+00 -0.0000000000e+00 -1.2000000000e+02 1.2000000000e+02 0.0000000000e+00 0.0000e+00 -1.0000e+00
       23  2    1    2    0    0 +1.6085430330e+01 -6.3658605139e+00 +4.7968872143e+01 1.0498513233e+02 9.1769276267e+01 0.0000e+00 0.0000e+00
       25  2    1    2    0    0 -1.6085430330e+01 +6.3658605139e+00 -4.7968872143e+01 1.3501486767e+02 1.2501494530e+02 0.0000e+00 0.0000e+00
      -11  1    3    3    0    0 +2.6358671310e+01 -1.4020222722e+01 +7.1893585080e+01 7.7846218752e+01 0.0000000000e+00 0.0000e+00 1.0000e+00
       11  1    3    3    0    0 -1.0273240980e+01 +7.6543622080e+00 -2.3924712937e+01 2.7138913577e+01 0.0000000000e+00 0.0000e+00 -1.0000e+00
        5  1    4    4  501    0 -1.4004373487e+01 +1.5586646203e+01 +2.4653336255e+01 3.2694693837e+01 4.7000000000e+00 0.0000e+00 1.0000e+00
       -5  1    4    4    0  501 +5.1158733722e+00 +3.9354455630e+00 +7.3936134919e+00 1.0881884607e+01 4.7000000000e+00 0.0000e+00 1.0000e+00
        5  1    4    4  502    0 +6.3171646230e+00 -2.3671609606e+01 -3.4442618517e+01 4.2528057098e+01 4.7000000000e+00 0.0000e+00 1.0000e+00
       -5  1    4    4    0  502 -1.3514094839e+01 +1.0515378353e+01 -4.5573203372e+01 4.8910232128e+01 4.7000000000e+00 0.0000e+00 1.0000e+00
</event>
<event>
10      1 +4.6527485e-10 2.40000000e+02 7.81860800e-03 1.03012300e-01
      -11 -1    0    0    0    0 +0.0000000000e+00 +0.0000000000e+00 +1.2000000000e+02 1.2000000000e+02 0.0000000000e+00 0.0000e+00 1.0000e+00
       11 -1    0    0    0    0 -0.0000000000e+00 -0.0000000000e+00 -1.2000000000e+02 1.2000000000e+02 0.0000000000e+00 0.0000e+00 -1.0000e+00
       23  2    1    2    0    0 -4.1596825512e+01 -2.2430007046e+01 -1.6761900593e+01 1.0532076908e+02 9.2618043490e+01 0.0000e+00 0.0000e+00
       25  2    1    2    0    0 +4.1596825512e+01 +2.2430007046e+01 +1.6761900593e+01 1.3467923092e+02 1.2499653123e+02 0.0000e+00 0.0000e+00
      -11  1    3    3    0    0 -5.9760932621e+00 +3.4005921161e+01 +5.5129457499e+00 3.4964395255e+01 0.0000000000e+00 0.0000e+00 1.0000e+00
       11  1    3    3    0    0 -3.5620732250e+01 -5.6435928207e+01 -2.2274846343e+01 7.0356373828e+01 0.0000000000e+00 0.0000e+00 -1.0000e+00
        5  1    4    4  501    0 +1.6642325432e+01 -4.2683107242e+01 +1.1509139986e+01 4.7469621262e+01 4.7000000000e+00 0.0000e+00 -1.0000e+00
       -5  1    4    4    0  502 +1.2791249525e+01 +5.3833416357e+01 -1.6368441133e+00 5.5555576135e+01 4.7000000000e+00 0.0000e+00 -1.0000e+00
        5  1    4    4  502    0 +1.9970410710e+00 +1.7345860173e+01 +5.1309718455e+00 1.8795848219e+01 4.7000000000e+00 0.0000e+00 -1.0000e+00
       -5  1    4    4    0  501 +1.0166209484e+01 -6.0661622426e+00 +1.7586328754e+00 1.2858185300e+01 4.7000000000e+00 0.0000e+00 -1.0000e+00
</event>
<event>
10      1 +4.6527485e-10 2.40000000e+02 7.81860800e-03 1.03012300e-01
      -11 -1    0    0    0    0 +0.0000000000e+00 +0.0000000000e+00 +1.2000000000e+02 1.2000000000e+02 0.0000000000e+00 0.0000e+00 -1.0000e+00
       11 -1    0    0    0    0 -0.0000000000e+00 -0.0000000000e+00 -1.2000000000e+02 1.2000000000e+02 0.0000000000e+00 0.0000e+00 1.0000e+00
       23  2    1    2    0    0 +6.3025584986e+00 -2.3541767067e+01 +4.6867895476e+01 1.0429483862e+02 8.9927063207e+01 0.0000e+00 0.0000e+00
       25  2    1    2    0    0 -6.3025584986e+00 +2.3541767067e+01 -4.6867895476e+01 1.3570516138e+02 1.2500141662e+02 0.0000e+00 0.0000e+00
      -11  1    3    3    0    0 -3.5735849298e+01 -3.4203092522e+01 +2.0550193253e+01 5.3565034359e+01 0.0000000000e+00 0.0000e+00 1.0000e+00
       11  1    3    3    0    0 +4.2038407796e+01 +1.0661325455e+01 +2.6317702223e+01 5.0729804265e+01 0.0000000000e+00 0.0000e+00 -1.0000e+00
        5  1    4    4  501    0 +3.4614055470e+01 +3.8513341494e+01 +8.2891332101e+00 5.2651780962e+01 4.7000000000e+00 0.0000e+00 1.0000e+00
       -5  1    4    4    0  502 -1.8658552967e+00 +3.6095417381e-01 -8.0029725674e+00 9.4736093343e+00 4.7000000000e+00 0.0000e+00 1.0000e+00
        5  1    4    4  502    0 -3.7922950905e+01 -1.8942318975e+01 -5.0955475795e+01 6.6449320290e+01 4.7000000000e+00 0.0000e+00 1.0000e+00
       -5  1    4    4    0  501 -1.1278077667e+00 +3.6097903744e+00 +3.8014196763e+00 7.1304507895e+00 4.7000000000e+00 0.0000e+00 1.0000e+00
</event>
<event>
10      1 +4.6527485e-10 2.40000000e+02 7.81860800e-03 1.03012300e-01
      -11 -1    0    0    0    0 +0.0000000000e+00 +0.0000000000e+00 +1.2000000000e+02 1.2000000000e+02 0.0000000000e+00 0.0000e+00 -1.0000e+00
       11 -1    0    0    0    0 -0.0000000000e+00 -0.0000000000e+00 -1.2000000000e+02 1.2000000000e+02 0.0000000000e+00 0.0000e+00 1.0000e+00
       23  2    1    2    0    0 -3.1635450365e+01 -3.8369351863e+01 +1.2754656262e+01 1.0486745510e+02 9.1441199686e+01 0.0000e+00 0.0000e+00
       25  2    1    2    0    0 +3.1635450365e+01 +3.8369351863e+01 -1.2754656262e+01 1.3513254490e+02 1.2500045821e+02 0.0000e+00 0.0000e+00
      -11  1    3    3    0    0 +1.1375448208e+01 -5.5492355799e+01 +1.4734095315e+01 5.8531153575e+01 0.0000000000e+00 0.0000e+00 1.0000e+00
       11  1    3    3    0    0 -4.3010898572e+01 +1.7123003936e+01 -1.9794390527e+00 4.6336301522e+01 0.0000000000e+00 0.0000e+00 -1.0000e+00
        5  1    4    4  501    0 +9.8084887297e+00 +2.7145717182e+01 -3.1478180880e+01 4.2965826933e+01 4.7000000000e+00 0.0000e+00 -1.0000e+00
       -5  1    4    4    0  502 +3.2617226935e+00 +2.0455043480e+00 +9.9877534853e+00 1.1690515072e+01 4.7000000000e+00 0.0000e+00 -1.0000e+00
        5  1    4    4  502    0 -3.3886474204e+00 -2.2430216452e+01 +2.8687197062e+01 3.6873334765e+01 4.7000000000e+00 0.0000e+00 1.0000e+00
       -5  1    4    4    0  501 +2.1953886362e+01 +3.1608346785e+01 -1.9951425929e+01 4.3602868133e+01 4.7000000000e+00 0.0000e+00 -1.0000e+00
</event>
<event>
10      1 +4.6527485e-10 2.40000000e+02 7.81860800e-03 1.03012300e-01
      -11 -1    0    0    0    0 +0.0000000000e+00 +0.0000000000e+00 +1.2000000000e+02 1.2000000000e+02 0.0000000000e+00 0.0000e+00 1.0000e+00
       11 -1    0    0    0    0 -0.0000000000e+00 -0.0000000000e+00 -1.2000000000e+02 1.2000000000e+02 0.0000000000e+00 0.0000e+00 -1.0000e+00
       23  2    1    2    0    0 -3.5646118482e+01 -3.5520641209e+01 -4.9685765951e+00 1.0515814259e+02 9.2201878972e+01 0.0000e+00 0.0000e+00
       25  2    1    2    0    0 +3.5646118482e+01 +3.5520641209e+01 +4.9685765951e+00 1.3484185741e+02 1.2500111216e+02 0.0000e+00 0.0000e+00
      -11  1    3    3    0    0 -3.9282261288e+01 -6.5712592582e+00 +3.6787723950e+01 5.4218208505e+01 0.0000000000e+00 0.0000e+00 1.0000e+00
       11  1    3    3    0    0 +3.6361428055e+00 -2.8949381951e+01 -4.1756300545e+01 5.0939934090e+01 0.0000000000e+00 0.0000e+00 -1.0000e+00
        5  1    4    4  501    0 -1.2358783981e+01 -8.7979720846e+00 +9.4837664733e-01 1.5910162556e+01 4.7000000000e+00 0.0000e+00 1.0000e+00
       -5  1    4    4    0  501 -1.1353386571e+01 -1.8720222009e+01 +1.8556293680e+01 2.9082161781e+01 4.7000000000e+00 0.0000e+00 1.0000e+00
        5  1    4    4  502    0 +2.8011496100e+00 +5.9807703352e+00 -2.1357983304e-01 8.1087403020e+00 4.7000000000e+00 0.0000e+00 -1.0000e+00
       -5  1    4    4    0  502 +5.6557139424e+01 +5.7058064967e+01 -1.4322513899e+01 8.1740792766e+01 4.7000000000e+00 0.0000e+00 1.0000e+00
</event>
<event>
10      1 +4.6527485e-10 2.40000000e+02 7.81860800e-03 1.03012300e-01
      -11 -1    0    0    0    0 +0.0000000000e+00 +0.0000000000e+00 +1.2000000000e+02 1.2000000000e+02 0.0000000000e+00 0.0000e+00 -1.0000e+00
       11 -1    0    0    0    0 -0.0000000000e+00 -0.0000000000e+00 -1.2000000000e+02 1.2000000000e+02 0.0000000000e+00 0.0000e+00 1.0000e+00
       23  2    1    2    0    0 -3.2254231509e+01 +2.6282830936e+01 -2.4645027610e+01 1.0597534152e+02 9.4298849261e+01 0.0000e+00 0.0000e+00
       25  2    1    2    0    0 +3.2254231509e+01 -2.6282830936e+01 +2.4645027610e+01 1.3402465848e+02 1.2499643612e+02 0.0000e+00 0.0000e+00
      -11  1    3    3    0    0 -2.6261813427e+01 +4.9807985524e+01 +1.6084630246e+01 5.8559658440e+01 0.0000000000e+00 0.0000e+00 -1.0000e+00
       11  1    3    3    0    0 -5.9924180814e+00 -2.3525154588e+01 -4.0729657856e+01 4.7415683079e+01 0.0000000000e+00 0.0000e+00 1.0000e+00
        5  1    4    4  501    0 +1.4260066425e+01 -1.3417824933e+01 +7.5694685958e+00 2.1512191315e+01 4.7000000000e+00 0.0000e+00 1.0000e+00
       -5  1    4    4    0  501 +5.3512140343e+01 -1.3710059151e+01 +3.8005163619e+01 6.7216049777e+01 4.7000000000e+00 0.0000e+00 1.0000e+00
        5  1    4    4  502    0 -1.5173469271e+01 -7.5894041193e+00 -8.0996538406e+00 1.9378534953e+01 4.7000000000e+00 0.0000e+00 -1.0000e+00
       -5  1    4    4    0  502 -2.0344505988e+01 +8.4344572660e+00 -1.2829950765e+01 2.5917882435e+01 4.7000000000e+00 0.0000e+00 -1.0000e+00
</event>
<event>
10      1 +4.6527485e-10 2.40000000e+02 7.81860800e-03 1.03012300e-01
      -11 -1    0    0    0    0 +0.0000000000e+00 +0.0000000000e+00 +1.2000000000e+02 1.2000000000e+02 0.0000000000e+00 0.0000e+00 1.0000e+00
       11 -1    0    0    0    0 -0.0000000000e+00 -0.0000000000e+00 -1.2000000000e+02 1.2000000000e+02 0.0000000000e+00 0.0000e+00 -1.0000e+00
       23  2    1    2    0    0 -4.0113724737e+01 -9.7804950889e+00 -3.0924740929e+01 1.0477679184e+02 9.1197957813e+01 0.0000e+00 0.0000e+00
       25  2    1    2    0    0 +4.0113724737e+01 +9.7804950889e+00 +3.0924740929e+01 1.3522320816e+02 1.2499682967e+02 0.0000e+00 0.0000e+00
      -13  1    3    3    0    0 -6.6011196944e+01 +1.0943324022e+01 -2.1847265572e+01 7.0388475446e+01 0.0000000000e+00 0.0000e+00 1.0000e+00
       13  1    3    3    0    0 +2.5897472207e+01 -2.0723819111e+01 -9.0774753578e+00 3.4388316389e+01 0.0000000000e+00 0.0000e+00 -1.0000e+00
        5  1    4    4  501    0 -1.0778163943e+01 +4.5352659053e+01 +1.7825865932e+01 5.0128674403e+01 4.7000000000e+00 0.0000e+00 1.0000e+00
       -5  1    4    4    0  501 +5.2223304932e+00 +9.3780935091e+00 +1.5773547322e+00 1.1823680544e+01 4.7000000000e+00 0.0000e+00 -1.0000e+00
        5  1    4    4  502    0 +4.7706124749e+01 -4.4701964309e+01 +6.1327760046e+00 6.5831913942e+01 4.7000000000e+00 0.0000e+00 -1.0000e+00
       -5  1    4    4    0  502 -2.0365665621e+00 -2.4829316358e-01 +5.3887442602e+00 7.4389392764e+00 4.7000000000e+00 0.0000e+00 -1.0000e+00
</event>
<event>
10      1 +4.6527485e-10 2.40000000e+02 7.81860800e-03 1.03012300e-01
      -11 -1    0    0    0    0 +0.0000000000e+00 +0.0000000000e+00 +1.2000000000e+02 1.2000000000e+02 0.0000000000e+00 0.0000e+00 1.0000e+00
       11 -1    0    0    0    0 -0.0000000000e+00 -0.0000000000e+00 -1.2000000000e+02 1.2000000000e+02 0.0000000000e+00 0.0000e+00 -1.0000e+00
       23  2    1    2    0    0 -3.1533905068e+01 +3.5535097946e+01 +1.7725881454e+01 1.0510477031e+02 9.2063432015e+01 0.0000e+00 0.0000e+00
       25  2    1    2    0    0 +3.1533905068e+01 -3.5535097946e+01 -1.7725881454e+01 1.3489522969e+02 1.2500154305e+02 0.0000e+00 0.0000e+00
      -13  1    3    3    0    0 -2.9866711501e+01 +2.3053199315e+01 -3.4656317275e+01 5.1230174523e+01 0.0000000000e+00 0.0000e+00 -1.0000e+00
       13  1    3    3    0    0 -1.6671935666e+00 +1.2481898630e+01 +5.2382198729e+01 5.3874595790e+01 0.0000000000e+00 0.0000e+00 1.0000e+00
        5  1    4    4  501    0 +3.9933428938e+01 -2.1248176638e+01 -5.3420248758e+01 7.0156801057e+01 4.7000000000e+00 0.0000e+00 1.0000e+00
       -5  1    4    4    0  501 +1.1749909666e+01 -2.8101875772e+00 -3.2546924237e+00 1.3365648288e+01 4.7000000000e+00 0.0000e+00 1.0000e+00
        5  1    4    4  502    0 -5.2709807410e+00 -2.4751581204e+00 +3.0630339436e+01 3.1531212150e+01 4.7000000000e+00 0.0000e+00 1.0000e+00
       -5  1    4    4    0  502 -1.4878452795e+01 -9.0015756104e+00 +8.3187202917e+00 1.9841568193e+01 4.7000000000e+00 0.0000e+00 1.0000e+00
</event>
<event>
10      1 +4.6527485e-10 2.40000000e+02 7.81860800e-03 1.03012300e-01
      -11 -1    0    0    0    0 +0.0000000000e+00 +0.0000000000e+00 +1.2000000000e+02 1.2000000000e+02 0.0000000000e+00 0.0000e+00 -1.0000e+00
       11 -1    0    0    0    0 -0.0000000000e+00 -0.0000000000e+00 -1.2000000000e+02 1.2000000000e+02 0.0000000000e+00 0.0000e+00 1.0000e+00
       23  2    1    2    0    0 +1.5907612251e+01 -2.2911872739e+01 -1.3697158924e+01 1.1119260455e+02 1.0676224569e+02 0.0000e+00 0.0000e+00
       25  2    1    2    0    0 -1.5907612251e+01 +2.2911872739e+01 +1.3697158924e+01 1.2880739545e+02 1.2500290764e+02 0.0000e+00 0.0000e+00
      -13  1    3    3    0    0 -3.0278621331e+01 +2.0059396373e+01 -2.8767138032e+01 4.6332737056e+01 0.0000000000e+00 0.0000e+00 1.0000e+00
       13  1    3    3    0    0 +4.6186233582e+01 -4.2971269112e+01 +1.5069979108e+01 6.4859867498e+01 0.0000000000e+00 0.0000e+00 -1.0000e+00
        5  1    4    4  501    0 -2.1180504036e+01 +2.5294919902e+01 +2.2351044472e+01 4.0126125069e+01 4.7000000000e+00 0.0000e+00 1.0000e+00
       -5  1    4    4    0  502 -1.1712943947e+01 +5.9086982086e+00 -9.1825478936e+00 1.6688767367e+01 4.7000000000e+00 0.0000e+00 -1.0000e+00
        5  1    4    4  502    0 +2.6008605061e+01 -1.4863626006e+01 -2.7828660980e+01 4.1157007754e+01 4.7000000000e+00 0.0000e+00 -1.0000e+00
       -5  1    4    4    0  501 -9.0227693288e+00 +6.5718806345e+00 +2.8357323327e+01 3.0835495256e+01 4.7000000000e+00 0.0000e+00 1.0000e+00
</event>
<event>
10      1 +4.6527485e-10 2.40000000e+02 7.81860800e-03 1.03012300e-01
      -11 -1    0    0    0    0 +0.0000000000e+00 +0.0000000000e+00 +1.2000000000e+02 1.2000000000e+02 0.0000000000e+00 0.0000e+00 -1.0000e+00
       11 -1    0    0    0    0 -0.0000000000e+00 -0.0000000000e+00 -1.2000000000e+02 1.2000000000e+02 0.0000000000e+00 0.0000e+00 1.0000e+00
       23  2    1    2    0    0 -4.4087407327e+01 -1.4207934576e+01 -2.0664407578e+01 1.0510183561e+02 9.2053317264e+01 0.0000e+00 0.0000e+00
       25  2    1    2    0    0 +4.4087407327e+01 +1.4207934576e+01 +2.0664407578e+01 1.3489816439e+02 1.2499972850e+02 0.0000e+00 0.0000e+00
      -13  1    3    3    0    0 -5.4141236779e+01 -1.4362708765e+01 +2.2809676762e+01 6.0480098189e+01 0.0000000000e+00 0.0000e+00 -1.0000e+00
       13  1    3    3    0    0 +1.0053829452e+01 +1.5477418885e-01 -4.3474084339e+01 4.4621737425e+01 0.0000000000e+00 0.0000e+00 1.0000e+00
        5  1    4    4  501    0 +4.6898489181e+00 -3.3474493163e+00 +8.0185382628e+00 1.0935586663e+01 4.7000000000e+00 0.0000e+00 -1.0000e+00
       -5  1    4    4    0  501 +3.4592780309e+01 +1.2254075908e+01 +6.0616129165e+01 7.1015687991e+01 4.7000000000e+00 0.0000e+00 1.0000e+00
        5  1    4    4  502    0 +7.1970609935e+00 +1.1201514483e+01 -3.5163225012e+01 3.7892136478e+01 4.7000000000e+00 0.0000e+00 1.0000e+00
       -5  1    4    4    0  502 -2.3922828934e+00 -5.9002064984e+00 -1.2807034838e+01 1.5054753253e+01 4.7000000000e+00 0.0000e+00 1.0000e+00
</event>
<event>
10      1 +4.6527485e-10 2.40000000e+02 7.81860800e-03 1.03012300e-01
      -11 -1    0    0    0    0 +0.0000000000e+00 +0.0000000000e+00 +1.2000000000e+02 1.2000000000e+02 0.0000000000e+00 0.0000e+00 1.0000e+00
       11 -1    0    0    0    0 -0.0000000000e+00 -0.0000000000e+00 -1.2000000000e+02 1.2000000000e+02 0.0000000000e+00 0.0000e+00 -1.0000e+00
       23  2    1    2    0    0 -3.6472876449e+01 +2.7293973912e+01 -2.4385601715e+01 1.0474466959e+02 9.1112877836e+01 0.0000e+00 0.0000e+00
       25  2    1    2    0    0 +3.6472876449e+01 -2.7293973912e+01 +2.4385601715e+01 1.3525533041e+02 1.2499646037e+02 0.0000e+00 0.0000e+00
      -13  1    3    3    0    0 -7.0293258463e+00 -3.3421656011e+01 -1.1575977347e+01 3.6061361094e+01 0.0000000000e+00 0.0000e+00 -1.0000e+00
       13  1    3    3    0    0 -2.9443550603e+01 +6.0715629924e+01 -1.2809624368e+01 6.8683308493e+01 0.0000000000e+00 0.0000e+00 1.0000e+00
        5  1    4    4  501    0 +1.3267527408e+01 +3.2545732072e+01 -1.2481644863e+01 3.7591666871e+01 4.7000000000e+00 0.0000e+00 1.0000e+00
       -5  1    4    4    0  502 +4.5532883117e+00 -4.4128238421e+01 +1.4207552757e+01 4.6818569136e+01 4.7000000000e+00 0.0000e+00 1.0000e+00
        5  1    4    4  502    0 +2.6338631498e+00 -2.4042250264e+01 +2.0523067178e+01 3.2066389245e+01 4.7000000000e+00 0.0000e+00 1.0000e+00
       -5  1    4    4    0  501 +1.6018197580e+01 +8.3307827004e+00 +2.1366266428e+00 1.8778705161e+01 4.7000000000e+00 0.0000e+00 1.0000e+00
</event>
<event>
10      1 +4.6527485e-10 2.40000000e+02 7.81860800e-03 1.03012300e-01
      -11 -1    0    0    0    0 +0.0000000000e+00 +0.0000000000e+00 +1.2000000000e+02 1.2000000000e+02 0.0000000000e+00 0.0000e+00 1.0000e+00
       11 -1    0    0    0    0 -0.0000000000e+00 -0.0000000000e+00 -1.2000000000e+02 1.2000000000e+02 0.0000000000e+00 0.0000e+00 -1.0000e+00
       23  2    1    2    0    0 +4.1852044284e+01 +1.2510263346e+00 +2.9461318043e+01 1.0492556160e+02 9.1587365612e+01 0.0000e+00 0.0000e+00
       25  2    1    2    0    0 -4.1852044284e+01 -1.2510263346e+00 -2.9461318043e+01 1.3507443840e+02 1.2499590381e+02 0.0000e+00 0.0000e+00
      -11  1    3    3    0    0 +4.3994362825e+01 -1.0447008580e+01 +5.8271217604e+01 7.3757567406e+01 0.0000000000e+00 0.0000e+00 1.0000e+00
       11  1    3    3    0    0 -2.1423185411e+00 +1.1698034914e+01 -2.8809899562e+01 3.1167994198e+01 0.0000000000e+00 0.0000e+00 -1.0000e+00
        5  1    4    4  501    0 +2.2861674159e+01 +1.5958483397e+01 -3.6925774105e+01 4.6507334163e+01 4.7000000000e+00 0.0000e+00 1.0000e+00
       -5  1    4    4    0  501 -4.9174710999e+01 -2.6330718112e+01 +2.0779640554e+01 5.9710488020e+01 4.7000000000e+00 0.0000e+00 1.0000e+00
        5  1    4    4  502    0 -1.7888323600e+01 +7.8460879466e+00 -1.1520672552e+01 2.3159644067e+01 4.7000000000e+00 0.0000e+00 1.0000e+00
       -5  1    4    4    0  502 +2.3493161559e+00 +1.2751204334e+00 -1.7945119395e+00 5.6969721450e+00 4.7000000000e+00 0.0000e+00 -1.0000e+00
</event>
<event>
10      1 +4.6527485e-10 2.40000000e+02 7.81860800e-03 1.03012300e-01
      -11 -1    0    0    0    0 +0.0000000000e+00 +0.0000000000e+00 +1.2000000000e+02 1.2000000000e+02 0.0000000000e+00 0.0000e+00 -1.0000e+00
       11 -1    0    0    0    0 -0.0000000000e+00 -0.0000000000e+00 -1.2000000000e+02 1.2000000000e+02 0.0000000000e+00 0.0000e+00 1.0000e+00
       23  2    1    2    0    0 -3.3708207818e+01 -2.8949823121e+01 +2.6959927162e+01 1.0462641736e+02 9.0804812668e+01 0.0000e+00 0.0000e+00
       25  2    1    2    0    0 +3.3708207818e+01 +2.8949823121e+01 -2.6959927162e+01 1.3537358264e+02 1.2499933468e+02 0.0000e+00 0.0000e+00
      -13  1    3    3    0    0 -1.5460474624e+01 -4.6296927113e+01 +5.0446806205e+01 7.0194814566e+01 0.0000000000e+00 0.0000e+00 -1.0000e+00
       13  1    3    3    0    0 -1.8247733194e+01 +1.7347103992e+01 -2.3486879043e+01 3.4431602792e+01 0.0000000000e+00 0.0000e+00 1.0000e+00
        5  1    4    4  501    0 -2.5178694105e+01 -2.8968512705e+01 -7.2939038299e+00 3.9350125772e+01 4.7000000000e+00 0.0000e+00 -1.0000e+00
       -5  1    4    4    0  501 +4.0129231407e+00 -5.3783809112e+00 -2.2688142921e+00 8.5010617955e+00 4.7000000000e+00 0.0000e+00 -1.0000e+00
        5  1    4    4  502    0 +3.0871060708e+01 +4.0500464908e+01 -3.3320002806e+00 5.1249412415e+01 4.7000000000e+00 0.0000e+00 -1.0000e+00
       -5  1    4    4    0  502 +2.4002918074e+01 +2.2796251829e+01 -1.4065208759e+01 3.6272982659e+01 4.7000000000e+00 0.0000e+00 -1.0000e+00
</event>
<event>
10      1 +4.6527485e-10 2.40000000e+02 7.81860800e-03 1.03012300e-01
      -11 -1    0    0    0    0 +0.0000000000e+00 +0.0000000000e+00 +1.2000000000e+02 1.2000000000e+02 0.0000000000e+00 0.0000e+00 1.0000e+00
       11 -1    0    0    0    0 -0.0000000000e+00 -0.0000000000e+00 -1.2000000000e+02 1.2000000000e+02 0.0000000000e+00 0.0000e+00 -1.0000e+00
       23  2    1    2    0    0 -3.2447818931e+01 +3.0815322144e+01 -2.7460343715e+01 1.0442231387e+02 9.0263525996e+01 0.0000e+00 0.0000e+00
       25  2    1    2    0    0 +3.2447818931e+01 -3.0815322144e+01 +2.7460343715e+01 1.3557768613e+02 1.2499917386e+02 0.0000e+00 0.0000e+00
      -11  1    3    3    0    0 -4.0770634504e+01 +5.7917987060e+00 +2.3231637826e+01 4.7281059275e+01 0.0000000000e+00 0.0000e+00 1.0000e+00
       11  1    3    3    0    0 +8.3228155734e+00 +2.5023523438e+01 -5.0691981541e+01 5.7141254597e+01 0.0000000000e+00 0.0000e+00 -1.0000e+00
        5  1    4    4  501    0 +2.7505053136e+01 +1.9457354913e+01 -5.0625320374e+00 3.4392380535e+01 4.7000000000e+00 0.0000e+00 -1.0000e+00
       -5  1    4    4    0  502 +3.6342100742e+00 -2.8499859331e+01 +7.7726070241e+00 3.0132256549e+01 4.7000000000e+00 0.0000e+00 1.0000e+00
        5  1    4    4  502    0 -1.0332243075e+01 -2.8247395463e+01 +3.9999867863e+01 5.0266788504e+01 4.7000000000e+00 0.0000e+00 1.0000e+00
       -5  1    4    4    0  501 +1.1640798795e+01 +6.4745777367e+00 -1.5249599135e+01 2.0786260540e+01 4.7000000000e+00 0.0000e+00 -1.0000e+00
</event>
<event>
10      1 +4.6527485e-10 2.40000000e+02 7.81860800e-03 1.03012300e-01
      -11 -1    0    0    0    0 +0.0000000000e+00 +0.0000000000e+00 +1.2000000000e+02 1.2000000000e+02 0.0000000000e+00 0.0000e+00 -1.0000e+00
       11 -1    0    0    0    0 -0.0000000000e+00 -0.0000000000e+00 -1.2000000000e+02 1.2000000000e+02 0.0000000000e+00 0.0000e+00 1.0000e+00
       23  2    1    2    0    0 +3.9112085222e+01 +2.6155929695e+01 -1.2897378875e+01 1.0581601990e+02 9.3897815823e+01 0.0000e+00 0.0000e+00
       25  2    1    2    0    0 -3.9112085222e+01 -2.6155929695e+01 +1.2897378875e+01 1.3418398010e+02 1.2500044106e+02 0.0000e+00 0.0000e+00
      -11  1    3    3    0    0 +3.2421458272e+01 +6.1112347599e+01 -5.0070845777e+00 6.9360946372e+01 0.0000000000e+00 0.0000e+00 -1.0000e+00
       11  1    3    3    0    0 +6.6906269493e+00 -3.4956417904e+01 -7.8902942971e+00 3.6455073525e+01 0.0000000000e+00 0.0000e+00 1.0000e+00
        5  1    4    4  501    0 -1.6837377946e+01 +1.4796626151e+01 +1.2419869749e+00 2.2936215320e+01 4.7000000000e+00 0.0000e+00 -1.0000e+00
       -5  1    4    4    0  502 -2.5306114587e+01 -6.0813618656e+01 +1.6207530454e+01 6.7996100572e+01 4.7000000000e+00 0.0000e+00 1.0000e+00
        5  1    4    4  502    0 -4.5527458475e-01 -1.0582942327e+01 +1.4360900120e+00 1.1677255575e+01 4.7000000000e+00 0.0000e+00 -1.0000e+00
       -5  1    4    4    0  501 +3.4866818959e+00 +3.0444005137e+01 -5.9882285663e+00 3.1574408637e+01 4.7000000000e+00 0.0000e+00 -1.0000e+00
</event>
<event>
10      1 +4.6527485e-10 2.40000000e+02 7.81860800e-03 1.03012300e-01
      -11 -1    0    0    0    0 +0.0000000000e+00 +0.0000000000e+00 +1.2000000000e+02 1.2000000000e+02 0.0000000000e+00 0.0000e+00 -1.0000e+00
       11 -1    0    0    0    0 -0.0000000000e+00 -0.0000000000e+00 -1.2000000000e+02 1.2000000000e+02 0.0000000000e+00 0.0000e+00 1.0000e+00
       23  2    1    2    0    0 +5.0625512238e+01 -1.6841989746e+01 +4.9489782379e+00 1.0400104802e+02 8.9135461498e+01 0.0000e+00 0.0000e+00
       25  2    1    2    0    0 -5.0625512238e+01 +1.6841989746e+01 -4.9489782379e+00 1.3599895198e+02 1.2499850977e+02 0.0000e+00 0.0000e+00
      -11  1    3    3    0    0 +3.3308609493e+01 +3.5474684075e+01 +4.7500038012e+00 4.8892527166e+01 0.0000000000e+00 0.0000e+00 1.0000e+00
       11  1    3    3    0    0 +1.7316902745e+01 -5.2316673821e+01 +1.9897443664e-01 5.5108520858e+01 0.0000000000e+00 0.0000e+00 -1.0000e+00
        5  1    4    4  501    0 -4.3703089748e+01 +5.5269768051e+00 +1.2343333346e+01 4.5988644296e+01 4.7000000000e+00 0.0000e+00 -1.0000e+00
       -5  1    4    4    0  502 +1.5983128004e+01 +1.6039362690e-01 -4.1425739454e+00 1.7167906856e+01 4.7000000000e+00 0.0000e+00 -1.0000e+00
        5  1    4    4  502    0 +1.3268671524e+01 -9.1375318544e+00 -2.4396493408e+01 2.9611332678e+01 4.7000000000e+00 0.0000e+00 -1.0000e+00
       -5  1    4    4    0  501 -3.6174222019e+01 +2.0292151168e+01 +1.1246755769e+01 4.3231068146e+01 4.7000000000e+00 0.0000e+00 -1.0000e+00
</event>
<event>
10      1 +4.6527485e-10 2.40000000e+02 7.81860800e-03 1.03012300e-01
      -11 -1    0    0    0    0 +0.0000000000e+00 +0.0000000000e+00 +1.2000000000e+02 1.2000000000e+02 0.0000000000e+00 0.0000e+00 -1.0000e+00
       11 -1    0    0    0    0 -0.0000000000e+00 -0.0000000000e+00 -1.2000000000e+02 1.2000000000e+02 0.0000000000e+00 0.0000e+00 1.0000e+00
       23  2    1    2    0    0 +6.8843326954e+00 +4.3199977706e+01 -2.4408777561e+01 1.0533461094e+02 9.2660453969e+01 0.0000e+00 0.0000e+00
       25  2    1    2    0    0 -6.8843326954e+00 -4.3199977706e+01 +2.4408777561e+01 1.3466538906e+02 1.2500138590e+02 0.0000e+00 0.0000e+00
      -13  1    3    3    0    0 -2.7041861222e+01 +5.7564010534e+01 -5.2674389682e+00 6.3817109621e+01 0.0000000000e+00 0.0000e+00 1.0000e+00
       13  1    3    3    0    0 +3.3926193918e+01 -1.4364032828e+01 -1.9141338593e+01 4.1517501321e+01 0.0000000000e+00 0.0000e+00 -1.0000e+00
        5  1    4    4  501    0 -1.0834626169e+01 +2.1896297321e+01 -1.9243965715e+00 2.4952560244e+01 4.7000000000e+00 0.0000e+00 -1.0000e+00
       -5  1    4    4    0  502 +1.6593397113e+01 -6.5331172084e+01 -2.0878765652e+00 6.7601420859e+01 4.7000000000e+00 0.0000e+00 1.0000e+00
        5  1    4    4  502    0 -4.2287442921e+00 -9.5132814780e+00 +1.0142889329e+00 1.1467501245e+01 4.7000000000e+00 0.0000e+00 1.0000e+00
       -5  1    4    4    0  501 -8.4143593481e+00 +9.7481785351e+00 +2.7406761765e+01 3.0643906709e+01 4.7000000000e+00 0.0000e+00 -1.0000e+00
</event>
<event>
10      1 +4.6527485e-10 2.40000000e+02 7.81860800e-03 1.03012300e-01
      -11 -1    0    0    0    0 +0.0000000000e+00 +0.0000000000e+00 +1.2000000000e+02 1.2000000000e+02 0.0000000000e+00 0.0000e+00 -1.0000e+00
       11 -1    0    0    0    0 -0.0000000000e+00 -0.0000000000e+00 -1.2000000000e+02 1.2000000000e+02 0.0000000000e+00 0.0000e+00 1.0000e+00
       23  2    1    2    0    0 -4.6963952373e+01 +3.6491825661e+00 +2.4130089206e+01 1.0425546298e+02 8.9822107530e+01 0.0000e+00 0.0000e+00
       25  2    1    2    0    0 +4.6963952373e+01 -3.6491825661e+00 -2.4130089206e+01 1.3574453702e+02 1.2500155506e+02 0.0000e+00 0.0000e+00
      -11  1    3    3    0    0 +6.2857405472e+00 -3.1288991016e+01 -8.0286090615e+00 3.2908510397e+01 0.0000000000e+00 0.0000e+00 1.0000e+00
       11  1    3    3    0    0 -5.3249692921e+01 +3.4938173583e+01 +3.2158698267e+01 7.1346952588e+01 0.0000000000e+00 0.0000e+00 -1.0000e+00
        5  1    4    4  501    0 +4.5667754140e+01 +2.1092496920e+01 -3.5202759612e+01 6.1577280541e+01 4.7000000000e+00 0.0000e+00 1.0000e+00
       -5  1    4    4    0  501 -1.6894880665e+01 -2.7782522129e+01 +2.7483797729e+01 4.2834036304e+01 4.7000000000e+00 0.0000e+00 1.0000e+00
        5  1    4    4  502    0 +6.0350290896e+00 -7.2352606407e-02 -1.6218672618e+01 1.7932154151e+01 4.7000000000e+00 0.0000e+00 1.0000e+00
       -5  1    4    4    0  502 +1.2156049809e+01 +3.1131952490e+00 -1.9245470428e-01 1.3401066018e+01 4.7000000000e+00 0.0000e+00 -1.0000e+00
</event>
<event>
10      1 +4.6527485e-10 2.40000000e+02 7.81860800e-03 1.03012300e-01
      -11 -1    0    0    0    0 +0.0000000000e+00 +0.0000000000e+00 +1.2000000000e+02 1.2000000000e+02 0.0000000000e+00 0.0000e+00 -1.0000e+00
       11 -1    0    0    0    0 -0.0000000000e+00 -0.0000000000e+00 -1.2000000000e+02 1.2000000000e+02 0.0000000000e+00 0.0000e+00 1.0000e+00
       23  2    1    2    0    0 -1.5283353526e+01 -3.9555172619e+01 -2.2458762744e+01 1.0610756630e+02 9.4637344776e+01 0.0000e+00 0.0000e+00
       25  2    1    2    0    0 +1.5283353526e+01 +3.9555172619e+01 +2.2458762744e+01 1.3389243370e+02 1.2499838080e+02 0.0000e+00 0.0000e+00
      -13  1    3    3    0    0 -6.9072684975e+00 -4.6436672748e+01 +2.7888657145e+01 5.4606337831e+01 0.0000000000e+00 0.0000e+00 -1.0000e+00
       13  1    3    3    0    0 -8.3760850285e+00 +6.8815001290e+00 -5.0347419888e+01 5.1501228469e+01 0.0000000000e+00 0.0000e+00 1.0000e+00
        5  1    4    4  501    0 -7.5855244331e-01 +5.0939072183e+00 +9.9925953470e-01 7.0435653029e+00 4.7000000000e+00 0.0000e+00 1.0000e+00
       -5  1    4    4    0  501 -4.7826061261e+01 +7.1112237429e+00 -1.9220931078e+00 4.8617754789e+01 4.7000000000e+00 0.0000e+00 -1.0000e+00
        5  1    4    4  502    0 +3.3526146480e+01 +1.6334453269e+01 +2.5691087936e+01 4.5529538332e+01 4.7000000000e+00 0.0000e+00 1.0000e+00
       -5  1    4    4    0  502 +3.0341820750e+01 +1.1015588389e+01 -2.3094916192e+00 3.2701575275e+01 4.7000000000e+00 0.0000e+00 1.0000e+00
</event>
<event>
10      1 +4.6527485e-10 2.40000000e+02 7.81860800e-03 1.03012300e-01
      -11 -1    0    0    0    0 +0.0000000000e+00 +0.0000000000e+00 +1.2000000000e+02 1.2000000000e+02 0.0000000000e+00 0.0000e+00 1.0000e+00
       11 -1    0    0    0    0 -0.0000000000e+00 -0.0000000000e+00 -1.2000000000e+02 1.2000000000e+02 0.0000000000e+00 0.0000e+00 -1.0000e+00
       23  2    1    2    0    0 +4.1528038694e+01 -1.9436208370e+01 +5.3149160867e+00 1.0674993400e+02 9.6254640838e+01 0.0000e+00 0.0000e+00
       25  2    1    2    0    0 -4.1528038694e+01 +1.9436208370e+01 -5.3149160867e+00 1.3325006600e+02 1.2499995025e+02 0.0000e+00 0.0000e+00
      -13  1    3    3    0    0 +2.8411794070e+01 -5.5107660453e+01 -1.4808785771e+01 6.3744681495e+01 0.0000000000e+00 0.0000e+00 -1.0000e+00
       13  1    3    3    0    0 +1.3116244624e+01 +3.5671452083e+01 +2.0123701858e+01 4.3005252507e+01 0.0000000000e+00 0.0000e+00 1.0000e+00
        5  1    4    4  501    0 -1.6346167431e+01 +1.1478261692e+01 -8.4785908609e+00 2.2201895958e+01 4.7000000000e+00 0.0000e+00 1.0000e+00
       -5  1    4    4    0  502 -2.0672924113e-01 -2.8541489027e+01 -3.2151426923e+01 4.3248856471e+01 4.7000000000e+00 0.0000e+00 -1.0000e+00
        5  1    4    4  502    0 -7.1973328400e-02 -6.3517754887e+00 +3.0302319960e+00 8.4630099827e+00 4.7000000000e+00 0.0000e+00 -1.0000e+00
       -5  1    4    4    0  501 -2.4903168693e+01 +4.2851211194e+01 +3.2284869701e+01 5.9336303587e+01 4.7000000000e+00 0.0000e+00 1.0000e+00
</event>
<event>
10      1 +4.6527485e-10 2.40000000e+02 7.81860800e-03 1.03012300e-01
      -11 -1    0    0    0    0 +0.0000000000e+00 +0.0000000000e+00 +1.2000000000e+02 1.2000000000e+02 0.0000000000e+00 0.0000e+00 1.0000e+00
       11 -1    0    0    0    0 -0.0000000000e+00 -0.0000000000e+00 -1.2000000000e+02 1.2000000000e+02 0.0000000000e+00 0.0000e+00 -1.0000e+00
       23  2    1    2    0    0 -3.9303213045e+01 -2.5694425154e+01 +8.4857045588e+00 1.0620153328e+02 9.4877881769e+01 0.0000e+00 0.0000e+00
       25  2    1    2    0    0 +3.9303213045e+01 +2.5694425154e+01 -8.4857045588e+00 1.3379846672e+02 1.2500030590e+02 0.0000e+00 0.0000e+00
      -11  1    3    3    0    0 +5.4548647382e+00 -2.7808747457e+01 -3.4131889534e+01 4.4362910946e+01 0.0000000000e+00 0.0000e+00 -1.0000e+00
       11  1    3    3    0    0 -4.4758077783e+01 +2.1143223030e+00 +4.2617594092e+01 6.1838622332e+01 0.0000000000e+00 0.0000e+00 1.0000e+00
        5  1    4    4  501    0 +2.0587529816e+01 +2.4095212325e+01 -6.2150419101e+01 6.9922744764e+01 4.7000000000e+00 0.0000e+00 -1.0000e+00
       -5  1    4    4    0  502 +7.6627869183e+00 -1.2727101640e+00 +8.4574112122e+00 1.2407896636e+01 4.7000000000e+00 0.0000e+00 -1.0000e+00
        5  1    4    4  502    0 +5.1461796175e+00 +9.5000745853e+00 +3.5860458457e+01 3.7746484108e+01 4.7000000000e+00 0.0000e+00 1.0000e+00
       -5  1    4    4    0  501 +5.9067166937e+00 -6.6281515923e+00 +9.3468448731e+00 1.3721341214e+01 4.7000000000e+00 0.0000e+00 1.0000e+00
</event>
<event>
10      1 +4.6527485e-10 2.40000000e+02 7.81860800e-03 1.03012300e-01
      -11 -1    0    0    0    0 +0.0000000000e+00 +0.0000000000e+00 +1.2000000000e+02 1.2000000000e+02 0.0000000000e+00 0.0000e+00 -1.0000e+00
       11 -1    0    0    0    0 -0.0000000000e+00 -0.0000000000e+00 -1.2000000000e+02 1.2000000000e+02 0.0000000000e+00 0.0000e+00 1.0000e+00
       23  2    1    2    0    0 +4.6649996935e+01 -3.1735489798e+01 -1.6120338689e+01 1.0191002481e+02 8.3321211651e+01 0.0000e+00 0.0000e+00
       25  2    1    2    0    0 -4.6649996935e+01 +3.1735489798e+01 +1.6120338689e+01 1.3808997519e+02 1.2500244958e+02 0.0000e+00 0.0000e+00
      -11  1    3    3    0    0 +2.0031326962e+01 -5.1694947475e+01 -3.3087065943e+01 6.4562958320e+01 0.0000000000e+00 0.0000e+00 1.0000e+00
       11  1    3    3    0    0 +2.6618669973e+01 +1.9959457677e+01 +1.6966727253e+01 3.7347066492e+01 0.0000000000e+00 0.0000e+00 -1.0000e+00
        5  1    4    4  501    0 -5.8481870166e+00 +8.8810789004e+00 +3.6645769357e+00 1.2189912958e+01 4.7000000000e+00 0.0000e+00 -1.0000e+00
       -5  1    4    4    0  501 -1.6336896764e+01 +6.2152140109e+01 -6.5845975274e+00 6.4770592406e+01 4.7000000000e+00 0.0000e+00 -1.0000e+00
        5  1    4    4  502    0 +1.3958652690e+00 -7.4432585143e+00 -7.8259089494e+00 1.1861087136e+01 4.7000000000e+00 0.0000e+00 1.0000e+00
       -5  1    4    4    0  502 -2.5860778423e+01 -3.1854470697e+01 +2.6866268231e+01 4.9268382688e+01 4.7000000000e+00 0.0000e+00 1.0000e+00
</event>
<event>
10      1 +4.6527485e-10 2.40000000e+02 7.81860800e-03 1.03012300e-01
      -11 -1    0    0    0    0 +0.0000000000e+00 +0.0000000000e+00 +1.2000000000e+02 1.2000000000e+02 0.0000000000e+00 0.0000e+00 -1.0000e+00
       11 -1    0    0    0    0 -0.0000000000e+00 -0.0000000000e+00 -1.2000000000e+02 1.2000000000e+02 0.0000000000e+00 0.0000e+00 1.0000e+00
       23  2    1    2    0    0 -4.8626422664e-01 +2.3666530074e+01 +4.6965024054e+01 1.0438575635e+02 9.0168351137e+01 0.0000e+00 0.0000e+00
       25  2    1    2    0    0 +4.8626422664e-01 -2.3666530074e+01 -4.6965024054e+01 1.3561424365e+02 1.2500067398e+02 0.0000e+00 0.0000e+00
      -13  1    3    3    0    0 -1.6680226151e+01 +3.4772151121e+01 -1.3462269923e+01 4.0848074000e+01 0.0000000000e+00 0.0000e+00 1.0000e+00
       13  1    3    3    0    0 +1.6193961925e+01 -1.1105621046e+01 +6.0427293977e+01 6.3537682355e+01 0.0000000000e+00 0.0000e+00 -1.0000e+00
        5  1    4    4  501    0 -3.0777568080e+00 -7.8008960820e-01 +3.3826919395e+00 6.6040693155e+00 4.7000000000e+00 0.0000e+00 1.0000e+00
       -5  1    4    4    0  502 -1.4356557276e+01 -2.1823312177e+01 -4.5085916439e+01 5.2318233460e+01 4.7000000000e+00 0.0000e+00 -1.0000e+00
        5  1    4    4  502    0 -4.4045973372e+00 +8.7600390518e-01 -3.6994353842e+01 3.7561151164e+01 4.7000000000e+00 0.0000e+00 -1.0000e+00
       -5  1    4    4    0  501 +2.2325175647e+01 -1.9391321941e+00 +3.1732554288e+01 3.9130789706e+01 4.7000000000e+00 0.0000e+00 1.0000e+00
</event>
<event>
10      1 +4.6527485e-10 2.40000000e+02 7.81860800e-03 1.03012300e-01
      -11 -1    0    0    0    0 +0.0000000000e+00 +0.0000000000e+00 +1.2000000000e+02 1.2000000000e+02 0.0000000000e+00 0.0000e+00 -1.0000e+00
       11 -1    0    0    0    0 -0.0000000000e+00 -0.0000000000e+00 -1.2000000000e+02 1.2000000000e+02 0.0000000000e+00 0.0000e+00 1.0000e+00
       23  2    1    2    0    0 +3.0930001792e+00 -5.1550975407e+01 +1.4663793181e+01 1.0394687185e+02 8.9010424234e+01 0.0000e+00 0.0000e+00
       25  2    1    2    0    0 -3.0930001792e+00 +5.1550975407e+01 -1.4663793181e+01 1.3605312815e+02 1.2501342781e+02 0.0000e+00 0.0000e+00
      -13  1    3    3    0    0 -1.9200731712e+01 +1.9194826292e+01 +1.2108577183e+01 2.9727547764e+01 0.0000000000e+00 0.0000e+00 -1.0000e+00
       13  1    3    3    0    0 +2.2293731891e+01 -7.0745801699e+01 +2.5552159978e+00 7.4219324090e+01 0.0000000000e+00 0.0000e+00 1.0000e+00
        5  1    4    4  501    0 +5.7417243431e+00 -1.3578636916e+01 +1.8519099775e+01 2.4132837285e+01 4.7000000000e+00 0.0000e+00 -1.0000e+00
       -5  1    4    4    0  502 -2.0937443278e+01 +6.0001339437e+01 -3.6186766206e+01 7.3281029699e+01 4.7000000000e+00 0.0000e+00 1.0000e+00
        5  1    4    4  502    0 -3.8000545511e+00 +1.6895852460e+01 -7.5808797094e-01 1.7960371441e+01 4.7000000000e+00 0.0000e+00 1.0000e+00
       -5  1    4    4    0  501 +1.5902773307e+01 -1.1767579574e+01 +3.7619612210e+00 2.0678889721e+01 4.7000000000e+00 0.0000e+00 -1.0000e+00
</event>
<event>
10      1 +4.6527485e-10 2.40000000e+02 7.81860800e-03 1.03012300e-01
      -11 -1    0    0    0    0 +0.0000000000e+00 +0.0000000000e+00 +1.2000000000e+02 1.2000000000e+02 0.0000000000e+00 0.0000e+00 1.0000e+00
       11 -1    0    0    0    0 -0.0000000000e+00 -0.0000000000e+00 -1.2000000000e+02 1.2000000000e+02 0.0000000000e+00 0.0000e+00 -1.0000e+00
       23  2    1    2    0    0 +2.7858694388e+01 +2.3062077488e+01 +3.7363345420e+01 1.0461338881e+02 9.0774309510e+01 0.0000e+00 0.0000e+00
       25  2    1    2    0    0 -2.7858694388e+01 -2.3062077488e+01 -3.7363345420e+01 1.3538661119e+02 1.2500219453e+02 0.0000e+00 0.0000e+00
      -13  1    3    3    0    0 -6.8840796874e+00 +2.3190863744e+01 -2.4013137665e+01 3.4085737411e+01 0.0000000000e+00 0.0000e+00 -1.0000e+00
       13  1    3    3    0    0 +3.4742774076e+01 -1.2878625667e-01 +6.1376483085e+01 7.0527651402e+01 0.0000000000e+00 0.0000e+00 1.0000e+00
        5  1    4    4  501    0 -1.8428355807e+01 -1.4614580405e+01 -1.5926406384e+00 2.4037819418e+01 4.7000000000e+00 0.0000e+00 1.0000e+00
       -5  1    4    4    0  502 -8.1479704510e+00 +1.0364208391e+01 +3.3003513266e+01 3.5848683741e+01 4.7000000000e+00 0.0000e+00 1.0000e+00
        5  1    4    4  502    0 +1.0303183136e-01 -1.6638340725e+01 -6.7902803371e+01 7.0069434872e+01 4.7000000000e+00 0.0000e+00 1.0000e+00
       -5  1    4    4    0  501 -1.3853999617e+00 -2.1733647482e+00 -8.7141467704e-01 5.4306731555e+00 4.7000000000e+00 0.0000e+00 -1.0000e+00
</event>
<event>
10      1 +4.6527485e-10 2.40000000e+02 7.81860800e-03 1.03012300e-01
      -11 -1    0    0    0    0 +0.0000000000e+00 +0.0000000000e+00 +1.2000000000e+02 1.2000000000e+02 0.0000000000e+00 0.0000e+00 -1.0000e+00
       11 -1    0    0    0    0 -0.0000000000e+00 -0.0000000000e+00 -1.2000000000e+02 1.2000000000e+02 0.0000000000e+00 0.0000e+00 1.0000e+00
       23  2    1    2    0    0 +2.6754009211e+01 +9.7719334315e+00 -3.9943325006e+00 1.1173424979e+02 1.0796907053e+02 0.0000e+00 0.0000e+00
       25  2    1    2    0    0 -2.6754009211e+01 -9.7719334315e+00 +3.9943325006e+00 1.2826575021e+02 1.2499952117e+02 0.0000e+00 0.0000e+00
      -11  1    3    3    0    0 -2.8961305337e+01 +3.3167719090e+01 -2.1248256140e+01 4.8891136062e+01 0.0000000000e+00 0.0000e+00 1.0000e+00
       11  1    3    3    0    0 +5.5715314548e+01 -2.3395785659e+01 +1.7253923640e+01 6.2843113725e+01 0.0000000000e+00 0.0000e+00 -1.0000e+00
        5  1    4    4  501    0 +5.5738853070e+00 -3.8910470050e+00 +2.2320769811e+00 8.5604095615e+00 4.7000000000e+00 0.0000e+00 1.0000e+00
       -5  1    4    4    0  501 -7.1659274093e+00 +1.3997653418e+01 +6.0546573689e+00 1.7493818700e+01 4.7000000000e+00 0.0000e+00 1.0000e+00
        5  1    4    4  502    0 +1.3680656744e+01 -3.0781609497e+00 +3.8865327379e+01 4.1584120961e+01 4.7000000000e+00 0.0000e+00 1.0000e+00
       -5  1    4    4    0  502 -3.8842623852e+01 -1.6800378894e+01 -4.3157729229e+01 6.0627400991e+01 4.7000000000e+00 0.0000e+00 1.0000e+00
</event>
<event>
10      1 +4.6527485e-10 2.40000000e+02 7.81860800e-03 1.03012300e-01
      -11 -1    0    0    0    0 +0.0000000000e+00 +0.0000000000e+00 +1.2000000000e+02 1.2000000000e+02 0.0000000000e+00 0.0000e+00 1.0000e+00
       11 -1    0    0    0    0 -0.0000000000e+00 -0.0000000000e+00 -1.2000000000e+02 1.2000000000e+02 0.0000000000e+00 0.0000e+00 -1.0000e+00
       23  2    1    2    0    0 -3.0771806475e+01 +3.1311776033e+01 -2.7529018309e+01 1.0468580290e+02 9.0961195511e+01 0.0000e+00 0.0000e+00
       25  2    1    2    0    0 +3.0771806475e+01 -3.1311776033e+01 +2.7529018309e+01 1.3531419710e+02 1.2499901477e+02 0.0000e+00 0.0000e+00
      -13  1    3    3    0    0 +2.9649255374e+01 +4.9524212573e+00 -2.4356291088e+01 3.8688935577e+01 0.0000000000e+00 0.0000e+00 1.0000e+00
       13  1    3    3    0    0 -6.0421061849e+01 +2.6359354776e+01 -3.1727272214e+00 6.5996867328e+01 0.0000000000e+00 0.0000e+00 -1.0000e+00
        5  1    4    4  501    0 +1.5202825544e+01 +8.7024124151e+00 +3.0815165666e+01 3.5756430490e+01 4.7000000000e+00 0.0000e+00 1.0000e+00
       -5  1    4    4    0  502 -1.6378608049e+00 -2.3353861525e+01 -1.8304190154e+01 3.0086854495e+01 4.7000000000e+00 0.0000e+00 1.0000e+00
        5  1    4    4  502    0 +1.5628751233e+00 -3.8647770967e+01 +1.6676348263e+00 3.8999535706e+01 4.7000000000e+00 0.0000e+00 1.0000e+00
       -5  1    4    4    0  501 +1.5643966612e+01 +2.1987444045e+01 +1.3350407971e+01 3.0471376405e+01 4.7000000000e+00 0.0000e+00 1.0000e+00
</event>
<event>
10      1 +4.6527485e-10 2.40000000e+02 7.81860800e-03 1.03012300e-01
      -11 -1    0    0    0    0 +0.0000000000e+00 +0.0000000000e+00 +1.2000000000e+02 1.2000000000e+02 0.0000000000e+00 0.0000e+00 1.0000e+00
       11 -1    0    0    0    0 -0.0000000000e+00 -0.0000000000e+00 -1.2000000000e+02 1.2000000000e+02 0.0000000000e+00 0.0000e+00 -1.0000e+00
       23  2    1    2    0    0 +1.9395462357e+01 +4.7110249839e+01 -1.3418187404e+01 1.0435158858e+02 9.0075783021e+01 0.0000e+00 0.0000e+00
       25  2    1    2    0    0 -1.9395462357e+01 -4.7110249839e+01 +1.3418187404e+01 1.3564841142e+02 1.2499953667e+02 0.0000e+00 0.0000e+00
      -11  1    3    3    0    0 +3.1573830775e+00 -1.4727643152e+01 +2.5418359194e+01 2.9545989996e+01 0.0000000000e+00 0.0000e+00 1.0000e+00
       11  1    3    3    0    0 +1.6238079279e+01 +6.1837892992e+01 -3.8836546598e+01 7.4805598588e+01 0.0000000000e+00 0.0000e+00 -1.0000e+00
        5  1    4    4  501    0 +9.1298789625e+00 -4.9109251297e+00 -5.9148647634e+00 1.2827606974e+01 4.7000000000e+00 0.0000e+00 -1.0000e+00
       -5  1    4    4    0  502 -1.1489256364e+01 +1.4313642154e+01 +6.7541605433e+00 2.0114473598e+01 4.7000000000e+00 0.0000e+00 -1.0000e+00
        5  1    4    4  502    0 -9.1970951128e+00 +1.9516177135e+01 -7.8786789439e+00 2.3444216992e+01 4.7000000000e+00 0.0000e+00 -1.0000e+00
       -5  1    4    4    0  501 -7.8389898433e+00 -7.6029143998e+01 +2.0457570568e+01 7.9262113853e+01 4.7000000000e+00 0.0000e+00 -1.0000e+00
</event>
<event>
10      1 +4.6527485e-10 2.40000000e+02 7.81860800e-03 1.03012300e-01
      -11 -1    0    0    0    0 +0.0000000000e+00 +0.0000000000e+00 +1.2000000000e+02 1.2000000000e+02 0.0000000000e+00 0.0000e+00 1.0000e+00
       11 -1    0    0    0    0 -0.0000000000e+00 -0.0000000000e+00 -1.2000000000e+02 1.2000000000e+02 0.0000000000e+00 0.0000e+00 -1.0000e+00
       23  2    1    2    0    0 +2.0452960338e+01 -4.5629899803e+01 -1.4443513703e+01 1.0459712174e+02 9.0727787612e+01 0.0000e+00 0.0000e+00
       25  2    1    2    0    0 -2.0452960338e+01 +4.5629899803e+01 +1.4443513703e+01 1.3540287826e+02 1.2499965204e+02 0.0000e+00 0.0000e+00
      -13  1    3    3    0    0 +6.6254162064e-01 -2.6272420320e+01 +3.7467593829e+01 4.5765703515e+01 0.0000000000e+00 0.0000e+00 1.0000e+00
       13  1    3    3    0    0 +1.9790418718e+01 -1.9357479483e+01 -5.1911107531e+01 5.8831418223e+01 0.0000000000e+00 0.0000e+00 -1.0000e+00
        5  1    4    4  501    0 -2.2530816698e+01 +5.4147962475e+01 +1.1822228297e+01 6.0012453901e+01 4.7000000000e+00 0.0000e+00 -1.0000e+00
       -5  1    4    4    0  502 +1.0960426647e+01 -2.5856903080e+01 +1.2386321433e+01 3.1051913755e+01 4.7000000000e+00 0.0000e+00 1.0000e+00
        5  1    4    4  502    0 +6.5919570493e+00 -9.0240106224e+00 -8.5990321198e-01 1.2153851200e+01 4.7000000000e+00 0.0000e+00 1.0000e+00
       -5  1    4    4    0  501 -1.5474527337e+01 +2.6362851030e+01 -8.9051328146e+00 3.2184659407e+01 4.7000000000e+00 0.0000e+00 -1.0000e+00
</event>
<event>
10      1 +4.6527485e-10 2.40000000e+02 7.81860800e-03 1.03012300e-01
      -11 -1    0    0    0    0 +0.0000000000e+00 +0.0000000000e+00 +1.2000000000e+02 1.2000000000e+02 0.0000000000e+00 0.0000e+00 -1.0000e+00
       11 -1    0    0    0    0 -0.0000000000e+00 -0.0000000000e+00 -1.2000000000e+02 1.2000000000e+02 0.0000000000e+00 0.0000e+00 1.0000e+00
       23  2    1    2    0    0 +3.2191096008e+01 -5.1500883601e+00 +3.8796107866e+01 1.0511652592e+02 9.2095363418e+01 0.0000e+00 0.0000e+00
       25  2    1    2    0    0 -3.2191096008e+01 +5.1500883601e+00 -3.8796107866e+01 1.3488347408e+02 1.2500249407e+02 0.0000e+00 0.0000e+00
      -11  1    3    3    0    0 +2.3348766527e+01 +3.5019780456e+01 -7.9680706902e+00 4.2837367707e+01 0.0000000000e+00 0.0000e+00 1.0000e+00
       11  1    3    3    0    0 +8.8423294802e+00 -4.0169868816e+01 +4.6764178556e+01 6.2279158210e+01 0.0000000000e+00 0.0000e+00 -1.0000e+00
        5  1    4    4  501    0 +6.8751182326e+00 -7.1821786032e+00 -3.8451799386e+01 3.9993522178e+01 4.7000000000e+00 0.0000e+00 1.0000e+00
       -5  1    4    4    0  502 -4.0734742005e+00 +8.8478309151e-01 +2.4396609035e+00 6.7392862014e+00 4.7000000000e+00 0.0000e+00 -1.0000e+00
        5  1    4    4  502    0 -3.3832070172e+00 +1.7176537083e+00 +3.6263787549e+01 3.6763415393e+01 4.7000000000e+00 0.0000e+00 -1.0000e+00
       -5  1    4    4    0  501 -3.1609533023e+01 +9.7298301635e+00 -3.9047756932e+01 5.1387250309e+01 4.7000000000e+00 0.0000e+00 1.0000e+00
</event>
<event>
10      1 +4.6527485e-10 2.40000000e+02 7.81860800e-03 1.03012300e-01
      -11 -1    0    0    0    0 +0.0000000000e+00 +0.0000000000e+00 +1.2000000000e+02 1.2000000000e+02 0.0000000000e+00 0.0000e+00 1.0000e+00
       11 -1    0    0    0    0 -0.0000000000e+00 -0.0000000000e+00 -1.2000000000e+02 1.2000000000e+02 0.0000000000e+00 0.0000e+00 -1.0000e+00
       23  2    1    2    0    0 +1.3814773751e+01 +9.9324564554e+00 -4.5004535102e+01 1.0606101397e+02 9.4519991742e+01 0.0000e+00 0.0000e+00
       25  2    1    2    0    0 -1.3814773751e+01 -9.9324564554e+00 +4.5004535102e+01 1.3393898603e+02 1.2499896854e+02 0.0000e+00 0.0000e+00
      -11  1    3    3    0    0 +4.6130654199e+01 +1.8060540427e+01 +6.4368986736e-01 4.9544270244e+01 0.0000000000e+00 0.0000e+00 1.0000e+00
       11  1    3    3    0    0 -3.2315880449e+01 -8.1280839712e+00 -4.5648224969e+01 5.6516743723e+01 0.0000000000e+00 0.0000e+00 -1.0000e+00
        5  1    4    4  501    0 +2.1585847765e+01 +2.3165496921e+01 +4.1126484363e+01 5.2115897645e+01 4.7000000000e+00 0.0000e+00 -1.0000e+00
       -5  1    4    4    0  501 +1.0671188139e+01 -1.2360502371e-01 +1.6575851623e+01 2.0266681808e+01 4.7000000000e+00 0.0000e+00 -1.0000e+00
        5  1    4    4  502    0 -3.5745950285e+01 -2.1857959595e+01 -1.6413222763e+01 4.5244085149e+01 4.7000000000e+00 0.0000e+00 1.0000e+00
       -5  1    4    4    0  502 -1.0325859369e+01 -1.1116388758e+01 +3.7154218795e+00 1.6312321431e+01 4.7000000000e+00 0.0000e+00 1.0000e+00
</event>
<event>
10      1 +4.6527485e-10 2.40000000e+02 7.81860800e-03 1.03012300e-01
      -11 -1    0    0    0    0 +0.0000000000e+00 +0.0000000000e+00 +1.2000000000e+02 1.2000000000e+02 0.0000000000e+00 0.0000e+00 -1.0000e+00
       11 -1    0    0    0    0 -0.0000000000e+00 -0.0000000000e+00 -1.2000000000e+02 1.2000000000e+02 0.0000000000e+00 0.0000e+00 1.0000e+00
       23  2    1    2    0    0 -1.2639030415e+01 -4.1668473312e+01 -2.3171411190e+01 1.0561509729e+02 9.3389655322e+01 0.0000e+00 0.0000e+00
       25  2    1    2    0    0 +1.2639030415e+01 +4.1668473312e+01 +2.3171411190e+01 1.3438490271e+02 1.2500552397e+02 0.0000e+00 0.0000e+00
      -13  1    3    3    0    0 -1.3219961974e+01 -7.1734594123e+01 -1.7515996485e+01 7.5016195061e+01 0.0000000000e+00 0.0000e+00 -1.0000e+00
       13  1    3    3    0    0 +5.8093155867e-01 +3.0066120812e+01 -5.6554147045e+00 3.0598902229e+01 0.0000000000e+00 0.0000e+00 1.0000e+00
        5  1    4    4  501    0 +2.3475812472e+01 +5.1104620673e+00 +6.7747252171e+00 2.5401131777e+01 4.7000000000e+00 0.0000e+00 1.0000e+00
       -5  1    4    4    0  501 +2.1579665958e+01 +1.7248078500e+01 -3.2945263539e+01 4.3251110789e+01 4.7000000000e+00 0.0000e+00 1.0000e+00
        5  1    4    4  502    0 -4.3732334479e+00 +2.4014363781e+00 +6.7649843883e-01 6.8876496430e+00 4.7000000000e+00 0.0000e+00 -1.0000e+00
       -5  1    4    4    0  502 -2.8043214567e+01 +1.6908496366e+01 +4.8665451073e+01 5.8845010501e+01 4.7000000000e+00 0.0000e+00 1.0000e+00
</event>
<event>
10      1 +4.6527485e-10 2.40000000e+02 7.81860800e-03 1.03012300e-01
      -11 -1    0    0    0    0 +0.0000000000e+00 +0.0000000000e+00 +1.2000000000e+02 1.2000000000e+02 0.0000000000e+00 0.0000e+00 -1.0000e+00
       11 -1    0    0    0    0 -0.0000000000e+00 -0.0000000000e+00 -1.2000000000e+02 1.2000000000e+02 0.0000000000e+00 0.0000e+00 1.0000e+00
       23  2    1    2    0    0 -2.0182372857e+01 -2.9879893835e+01 +3.4572895344e+01 1.0538730047e+02 9.2795806900e+01 0.0000e+00 0.0000e+00
       25  2    1    2    0    0 +2.0182372857e+01 +2.9879893835e+01 -3.4572895344e+01 1.3461269953e+02 1.2500063021e+02 0.0000e+00 0.0000e+00
      -13  1    3    3    0    0 -3.1017975803e+01 +2.4778063313e+01 -2.1048031285e-01 3.9700271364e+01 0.0000000000e+00 0.0000e+00 -1.0000e+00
       13  1    3    3    0    0 +1.0835602946e+01 -5.4657957147e+01 +3.4783375657e+01 6.5687029106e+01 0.0000000000e+00 0.0000e+00 1.0000e+00
        5  1    4    4  501    0 -1.0048150663e+01 +3.9756905137e+01 +7.4646696355e+00 4.1945060861e+01 4.7000000000e+00 0.0000e+00 -1.0000e+00
       -5  1    4    4    0  501 +4.2091934373e+00 +3.0164577162e+01 -1.1376953889e+01 3.2850328835e+01 4.7000000000e+00 0.0000e+00 -1.0000e+00
        5  1    4    4  502    0 +1.3786150292e+01 -7.8384009250e+00 -1.1165490201e+01 1.9956368416e+01 4.7000000000e+00 0.0000e+00 1.0000e+00
       -5  1    4    4    0  502 +1.2235179790e+01 -3.2203187540e+01 -1.9495120890e+01 3.9860941418e+01 4.7000000000e+00 0.0000e+00 1.0000e+00
</event>
<event>
10      1 +4.6527485e-10 2.40000000e+02 7.81860800e-03 1.03012300e-01
      -11 -1    0    0    0    0 +0.0000000000e+00 +0.0000000000e+00 +1.2000000000e+02 1.2000000000e+02 0.0000000000e+00 0.0000e+00 1.0000e+00
       11 -1    0    0    0    0 -0.0000000000e+00 -0.0000000000e+00 -1.2000000000e+02 1.2000000000e+02 0.0000000000e+00 0.0000e+00 -1.0000e+00
       23  2    1    2    0    0 +4.1495107696e+01 +3.0362701927e+01 -2.4588384381e+00 1.0481478314e+02 9.1303643116e+01 0.0000e+00 0.0000e+00
       25  2    1    2    0    0 -4.1495107696e+01 -3.0362701927e+01 +2.4588384381e+00 1.3518521686e+02 1.2500103736e+02 0.0000e+00 0.0000e+00
      -11  1    3    3    0    0 -2.9263687943e+01 +6.8333265391e+00 -3.3827237510e+00 3.0240711030e+01 0.0000000000e+00 0.0000e+00 -1.0000e+00
       11  1    3    3    0    0 +7.0758795639e+01 +2.3529375388e+01 +9.2388531285e-01 7.4574072106e+01 0.0000000000e+00 0.0000e+00 1.0000e+00
        5  1    4    4  501    0 -4.4340657079e+00 -3.8074482022e+00 -4.5392095933e-01 7.5135640512e+00 4.7000000000e+00 0.0000e+00 -1.0000e+00
       -5  1    4    4    0  502 +2.0183331867e+01 +2.4004354741e+01 -1.7700740553e+00 3.1761597786e+01 4.7000000000e+00 0.0000e+00 1.0000e+00
        5  1    4    4  502    0 -2.1996719356e+01 +1.0646059360e+01 -9.2432476807e-01 2.4902582568e+01 4.7000000000e+00 0.0000e+00 1.0000e+00
       -5  1    4    4    0  501 -3.5247654500e+01 -6.1205667825e+01 +5.6071582208e+00 7.1007472458e+01 4.7000000000e+00 0.0000e+00 1.0000e+00
</event>
<event>
10      1 +4.6527485e-10 2.40000000e+02 7.81860800e-03 1.03012300e-01
      -11 -1    0    0    0    0 +0.0000000000e+00 +0.0000000000e+00 +1.2000000000e+02 1.2000000000e+02 0.0000000000e+00 0.0000e+00 1.0000e+00
       11 -1    0    0    0    0 -0.0000000000e+00 -0.0000000000e+00 -1.2000000000e+02 1.2000000000e+02 0.0000000000e+00 0.0000e+00 -1.0000e+00
       23  2    1    2    0    0 +6.8603403950e+00 -2.7517055174e+01 +4.1274807574e+01 1.0534027334e+02 9.2675297960e+01 0.0000e+00 0.0000e+00
       25  2    1    2    0    0 -6.8603403950e+00 +2.7517055174e+01 -4.1274807574e+01 1.3465972666e+02 1.2500151858e+02 0.0000e+00 0.0000e+00
      -11  1    3    3    0    0 +3.9522412056e+01 -3.5170684421e+01 +9.8779360767e-01 5.2914778971e+01 0.0000000000e+00 0.0000e+00 -1.0000e+00
       11  1    3    3    0    0 -3.2662071661e+01 +7.6536292467e+00 +4.0287013967e+01 5.2425494372e+01 0.0000000000e+00 0.0000e+00 1.0000e+00
        5  1    4    4  501    0 +1.4755398029e+01 +1.3146731947e+01 +3.6255049482e+00 2.0634742984e+01 4.7000000000e+00 0.0000e+00 1.0000e+00
       -5  1    4    4    0  501 +3.4746200241e+00 +4.9493889735e+01 -3.4305545815e+00 4.9955748520e+01 4.7000000000e+00 0.0000e+00 1.0000e+00
        5  1    4    4  502    0 -8.5439770469e+00 -2.5426899938e+01 -3.2444006155e+01 4.2358355960e+01 4.7000000000e+00 0.0000e+00 1.0000e+00
       -5  1    4    4    0  502 -1.6546381401e+01 -9.6966665694e+00 -9.0257517864e+00 2.1710879193e+01 4.7000000000e+00 0.0000e+00 1.0000e+00
</event>
<event>
10      1 +4.6527485e-10 2.40000000e+02 7.81860800e-03 1.03012300e-01
      -11 -1    0    0    0    0 +0.0000000000e+00 +0.0000000000e+00 +1.2000000000e+02 1.2000000000e+02 0.0000000000e+00 0.0000e+00 -1.0000e+00
       11 -1    0    0    0    0 -0.0000000000e+00 -0.0000000000e+00 -1.2000000000e+02 1.2000000000e+02 0.0000000000e+00 0.0000e+00 1.0000e+00
       23  2    1    2    0    0 +1.0948102960e+01 +1.6773317183e+01 +4.7274792529e+01 1.0486758282e+02 9.1439044128e+01 0.0000e+00 0.0000e+00
       25  2    1    2    0    0 -1.0948102960e+01 -1.6773317183e+01 -4.7274792529e+01 1.3513241718e+02 1.2499863613e+02 0.0000e+00 0.0000e+00
      -13  1    3    3    0    0 +1.2896878702e+01 +5.3866719713e+01 +3.5957972241e+01 6.6037328388e+01 0.0000000000e+00 0.0000e+00 -1.0000e+00
       13  1    3    3    0    0 -1.9487757418e+00 -3.7093402530e+01 +1.1316820288e+01 3.8830254437e+01 0.0000000000e+00 0.0000e+00 1.0000e+00
        5  1    4    4  501    0 +1.2587510703e+01 +8.5514017753e+00 -1.2677642789e-01 1.5927271275e+01 4.7000000000e+00 0.0000e+00 -1.0000e+00
       -5  1    4    4    0  501 +3.4016041993e+01 +8.5512879608e+00 -3.2039482679e+01 4.7737135325e+01 4.7000000000e+00 0.0000e+00 -1.0000e+00
        5  1    4    4  502    0 -3.7670396268e+01 -1.5071987294e+01 -1.5533080210e+01 4.3698857385e+01 4.7000000000e+00 0.0000e+00 -1.0000e+00
       -5  1    4    4    0  502 -1.9881259388e+01 -1.8804019626e+01 +4.2454678725e-01 2.7769153190e+01 4.7000000000e+00 0.0000e+00 -1.0000e+00
</event>
<event>
10      1 +4.6527485e-10 2.40000000e+02 7.81860800e-03 1.03012300e-01
      -11 -1    0    0    0    0 +0.0000000000e+00 +0.0000000000e+00 +1.2000000000e+02 1.2000000000e+02 0.0000000000e+00 0.0000e+00 1.0000e+00
       11 -1    0    0    0    0 -0.0000000000e+00 -0.0000000000e+00 -1.2000000000e+02 1.2000000000e+02 0.0000000000e+00 0.0000e+00 -1.0000e+00
       23  2    1    2    0    0 +4.2633785634e+01 +4.7433506958e+00 +2.5673788279e+01 1.0538218023e+02 9.2769183737e+01 0.0000e+00 0.0000e+00
       25  2    1    2    0    0 -4.2633785634e+01 -4.7433506958e+00 -2.5673788279e+01 1.3461781977e+02 1.2499069943e+02 0.0000e+00 0.0000e+00
      -13  1    3    3    0    0 -2.0619294037e+01 -2.3673684125e+01 +1.6405593180e+01 3.5422338915e+01 0.0000000000e+00 0.0000e+00 -1.0000e+00
       13  1    3    3    0    0 +6.3253079671e+01 +2.8417034821e+01 +9.2681950991e+00 6.9959841311e+01 0.0000000000e+00 0.0000e+00 1.0000e+00
        5  1    4    4  501    0 +2.6422582575e+00 -2.4837764911e+00 -3.6372383312e+00 6.9620526452e+00 4.7000000000e+00 0.0000e+00 1.0000e+00
       -5  1    4    4    0  502 -6.5106300958e+01 -1.6475033916e+01 -2.7486835219e+01 7.2717764523e+01 4.7000000000e+00 0.0000e+00 -1.0000e+00
        5  1    4    4  502    0 -1.1474642514e+01 +1.4992929661e+00 -1.1380816063e+01 1.6897581912e+01 4.7000000000e+00 0.0000e+00 -1.0000e+00
       -5  1    4    4    0  501 +3.1304899580e+01 +1.2716166745e+01 +1.6831101335e+01 3.8040420693e+01 4.7000000000e+00 0.0000e+00 1.0000e+00
</event>
<event>
10      1 +4.6527485e-10 2.40000000e+02 7.81860800e-03 1.03012300e-01
      -11 -1    0    0    0    0 +0.0000000000e+00 +0.0000000000e+00 +1.2000000000e+02 1.2000000000e+02 0.0000000000e+00 0.0000e+00 1.0000e+00
       11 -1    0    0    0    0 -0.0000000000e+00 -0.0000000000e+00 -1.2000000000e+02 1.2000000000e+02 0.0000000000e+00 0.0000e+00 -1.0000e+00
       23  2    1    2    0    0 -3.2156516454e+01 +4.2507244293e+01 +4.5230201045e+00 1.0403547548e+02 8.9230124281e+01 0.0000e+00 0.0000e+00
       25  2    1    2    0    0 +3.2156516454e+01 -4.2507244293e+01 -4.5230201045e+00 1.3596452452e+02 1.2499994740e+02 0.0000e+00 0.0000e+00
      -13  1    3    3    0    0 +4.6352172880e+00 +4.1426821113e+01 -3.1718327462e+01 5.2380521607e+01 0.0000000000e+00 0.0000e+00 -1.0000e+00
       13  1    3    3    0    0 -3.6791733742e+01 +1.0804231806e+00 +3.6241347567e+01 5.1654953871e+01 0.0000000000e+00 0.0000e+00 1.0000e+00
        5  1    4    4  501    0 +9.5610486967e+00 -6.7792289284e+00 +6.3667732340e+00 1.4142043645e+01 4.7000000000e+00 0.0000e+00 1.0000e+00
       -5  1    4    4    0  501 +4.9246456342e+01 +1.7690117253e+01 +1.4599458743e+01 5.4528780532e+01 4.7000000000e+00 0.0000e+00 1.0000e+00
        5  1    4    4  502    0 -2.0316500072e+01 -4.3595406413e+01 -2.5615907051e+01 5.4695377588e+01 4.7000000000e+00 0.0000e+00 -1.0000e+00
       -5  1    4    4    0  502 -6.3344885121e+00 -9.8227262052e+00 +1.2665497007e-01 1.2598322757e+01 4.7000000000e+00 0.0000e+00 -1.0000e+00
</event>
<event>
10      1 +4.6527485e-10 2.40000000e+02 7.81860800e-03 1.03012300e-01
      -11 -1    0    0    0    0 +0.0000000000e+00 +0.0000000000e+00 +1.2000000000e+02 1.2000000000e+02 0.0000000000e+00 0.0000e+00 -1.0000e+00
       11 -1    0    0    0    0 -0.0000000000e+00 -0.0000000000e+00 -1.2000000000e+02 1.2000000000e+02 0.0000000000e+00 0.0000e+00 1.0000e+00
       23  2    1    2    0    0 +4.1773384291e+01 -1.4123253382e+01 -3.0494680290e+01 1.0398754901e+02 8.9101082495e+01 0.0000e+00 0.0000e+00
       25  2    1    2    0    0 -4.1773384291e+01 +1.4123253382e+01 +3.0494680290e+01 1.3601245099e+02 1.2499991751e+02 0.0000e+00 0.0000e+00
      -13  1    3    3    0    0 +3.8840377142e+01 +3.0146727303e-01 -5.9734154217e+01 7.1251911968e+01 0.0000000000e+00 0.0000e+00 1.0000e+00
       13  1    3    3    0    0 +2.9330071483e+00 -1.4424720655e+01 +2.9239473927e+01 3.2735637041e+01 0.0000000000e+00 0.0000e+00 -1.0000e+00
        5  1    4    4  501    0 +1.8518495337e+01 -2.6636331167e+01 +7.3795145303e+00 3.3600238724e+01 4.7000000000e+00 0.0000e+00 -1.0000e+00
       -5  1    4    4    0  501 +4.5321285114e+00 -3.0425402376e+00 -8.4512084195e+00 1.1104510961e+01 4.7000000000e+00 0.0000e+00 -1.0000e+00
        5  1    4    4  502    0 -2.8925733892e+01 +1.4302463520e+01 +3.0415844857e+01 4.4592288148e+01 4.7000000000e+00 0.0000e+00 -1.0000e+00
       -5  1    4    4    0  502 -3.5898274248e+01 +2.9499661266e+01 +1.1505293226e+00 4.6715413158e+01 4.7000000000e+00 0.0000e+00 -1.0000e+00
</event>
<event>
10      1 +4.6527485e-10 2.40000000e+02 7.81860800e-03 1.03012300e-01
      -11 -1    0    0    0    0 +0.0000000000e+00 +0.0000000000e+00 +1.2000000000e+02 1.2000000000e+02 0.0000000000e+00 0.0000e+00 -1.0000e+00
       11 -1    0    0    0    0 -0.0000000000e+00 -0.0000000000e+00 -1.2000000000e+02 1.2000000000e+02 0.0000000000e+00 0.0000e+00 1.0000e+00
       23  2    1    2    0    0 -6.5186808715e+00 -3.9131818838e+01 +3.4060169554e+01 1.0450635678e+02 9.0485860832e+01 0.0000e+00 0.0000e+00
       25  2    1    2    0    0 +6.5186808715e+00 +3.9131818838e+01 -3.4060169554e+01 1.3549364322e+02 1.2499855902e+02 0.0000e+00 0.0000e+00
      -11  1    3    3    0    0 -1.6459192571e+01 -4.1849011864e+01 -2.0184445441e+01 4.9291547469e+01 0.0000000000e+00 0.0000e+00 1.0000e+00
       11  1    3    3    0    0 +9.9405116999e+00 +2.7171930262e+00 +5.4244614995e+01 5.5214809307e+01 0.0000000000e+00 0.0000e+00 -1.0000e+00
        5  1    4    4  501    0 +4.5495782724e+00 -2.5501737842e+00 +1.4699914317e+01 1.6290473588e+01 4.7000000000e+00 0.0000e+00 1.0000e+00
       -5  1    4    4    0  502 -4.1939585380e+00 +3.7045478348e+00 -6.1835769235e+00 9.5728567547e+00 4.7000000000e+00 0.0000e+00 -1.0000e+00
        5  1    4    4  502    0 +4.1721319389e+00 +5.3830024122e+01 -6.3113424612e+01 8.3189377616e+01 4.7000000000e+00 0.0000e+00 1.0000e+00
       -5  1    4    4    0  501 +1.9909291982e+00 -1.5852579334e+01 +2.0536917664e+01 2.6440935266e+01 4.7000000000e+00 0.0000e+00 1.0000e+00
</event>
<event>
10      1 +4.6527485e-10 2.40000000e+02 7.81860800e-03 1.03012300e-01
      -11 -1    0    0    0    0 +0.0000000000e+00 +0.0000000000e+00 +1.2000000000e+02 1.2000000000e+02 0.0000000000e+00 0.0000e+00 -1.0000e+00
       11 -1    0    0    0    0 -0.0000000000e+00 -0.0000000000e+00 -1.2000000000e+02 1.2000000000e+02 0.0000000000e+00 0.0000e+00 1.0000e+00
       23  2    1    2    0    0 -4.6057304526e+01 -1.7965371937e+01 +1.5082659941e+01 1.0473650906e+02 9.1094565201e+01 0.0000e+00 0.0000e+00
       25  2    1    2    0    0 +4.6057304526e+01 +1.7965371937e+01 -1.5082659941e+01 1.3526349094e+02 1.2499878184e+02 0.0000e+00 0.0000e+00
      -13  1    3    3    0    0 -1.3043185857e+00 -3.7465719138e+01 -2.1968662227e+01 4.3451161982e+01 0.0000000000e+00 0.0000e+00 1.0000e+00
       13  1    3    3    0    0 -4.4752985941e+01 +1.9500347201e+01 +3.7051322169e+01 6.1285347074e+01 0.0000000000e+00 0.0000e+00 -1.0000e+00
        5  1    4    4  501    0 -3.2631122152e+00 -9.1710114484e+00 +4.2270206757e+00 1.1606595371e+01 4.7000000000e+00 0.0000e+00 1.0000e+00
       -5  1    4    4    0  501 +1.5717966202e-01 -8.6799189044e+00 +3.7246909158e+01 3.8532946156e+01 4.7000000000e+00 0.0000e+00 -1.0000e+00
        5  1    4    4  502    0 +6.6685960577e+00 +3.4436431951e+00 -1.4424236299e+01 1.6925644586e+01 4.7000000000e+00 0.0000e+00 1.0000e+00
       -5  1    4    4    0  502 +4.2494641022e+01 +3.2372659095e+01 -4.2132353475e+01 6.8198304831e+01 4.7000000000e+00 0.0000e+00 -1.0000e+00
</event>
<event>
10      1 +4.6527485e-10 2.40000000e+02 7.81860800e-03 1.03012300e-01
      -11 -1    0    0    0    0 +0.0000000000e+00 +0.0000000000e+00 +1.2000000000e+02 1.2000000000e+02 0.0000000000e+00 0.0000e+00 1.0000e+00
       11 -1    0    0    0    0 -0.0000000000e+00 -0.0000000000e+00 -1.2000000000e+02 1.2000000000e+02 0.0000000000e+00 0.0000e+00 -1.0000e+00
       23  2    1    2    0    0 -3.8653017159e+01 +2.7525902040e+01 +1.9039691963e+01 1.0494493451e+02 9.1647140658e+01 0.0000e+00 0.0000e+00
       25  2    1    2    0    0 +3.8653017159e+01 -2.7525902040e+01 -1.9039691963e+01 1.3505506549e+02 1.2500251928e+02 0.0000e+00 0.0000e+00
      -13  1    3    3    0    0 -2.8159543717e+01 -8.3400928093e+00 +4.8946683277e+01 5.7081475579e+01 0.0000000000e+00 0.0000e+00 1.0000e+00
       13  1    3    3    0    0 -1.0493473442e+01 +3.5865994850e+01 -2.9906991315e+01 4.7863458932e+01 0.0000000000e+00 0.0000e+00 -1.0000e+00
        5  1    4    4  501    0 -6.3480480973e+00 +1.6644246989e+01 +9.9832450682e+00 2.0954327824e+01 4.7000000000e+00 0.0000e+00 -1.0000e+00
       -5  1    4    4    0  502 +7.9689860685e-01 -2.5463687213e+01 -1.1499099142e+00 2.5931577405e+01 4.7000000000e+00 0.0000e+00 1.0000e+00
        5  1    4    4  502    0 +3.0678952711e+01 -4.3333959286e+01 -9.1553912953e+00 5.4082726971e+01 4.7000000000e+00 0.0000e+00 1.0000e+00
       -5  1    4    4    0  501 +1.3525213939e+01 +2.4627497469e+01 -1.8717635821e+01 3.4086433290e+01 4.7000000000e+00 0.0000e+00 -1.0000e+00
</event>
<event>
10      1 +4.6527485e-10 2.40000000e+02 7.81860800e-03 1.03012300e-01
      -11 -1    0    0    0    0 +0.0000000000e+00 +0.0000000000e+00 +1.2000000000e+02 1.2000000000e+02 0.0000000000e+00 0.0000e+00 1.0000e+00
       11 -1    0    0    0    0 -0.0000000000e+00 -0.0000000000e+00 -1.2000000000e+02 1.2000000000e+02 0.0000000000e+00 0.0000e+00 -1.0000e+00
       23  2    1    2    0    0 +3.6459048984e+01 -2.4084933524e+00 +2.8489183313e+01 1.0668924163e+02 9.6103577562e+01 0.0000e+00 0.0000e+00
       25  2    1    2    0    0 -3.6459048984e+01 +2.4084933524e+00 -2.8489183313e+01 1.3331075837e+02 1.2500024655e+02 0.0000e+00 0.0000e+00
      -11  1    3    3    0    0 +1.0362544331e+01 -1.3229513455e+01 +6.1201283070e+01 6.3466521889e+01 0.0000000000e+00 0.0000e+00 1.0000e+00
       11  1    3    3    0    0 +2.6096504654e+01 +1.0821020103e+01 -3.2712099756e+01 4.3222719739e+01 0.0000000000e+00 0.0000e+00 -1.0000e+00
        5  1    4    4  501    0 +2.9337270061e+01 -1.9143924685e+01 +1.9831536411e+01 4.0528324705e+01 4.7000000000e+00 0.0000e+00 -1.0000e+00
       -5  1    4    4    0  501 +5.3032412051e-01 -1.0968233817e+00 +1.0296975733e+00 4.9633196850e+00 4.7000000000e+00 0.0000e+00 1.0000e+00
        5  1    4    4  502    0 -1.7903483072e+01 +1.1298214684e+01 -2.1885170729e+01 3.0809658534e+01 4.7000000000e+00 0.0000e+00 -1.0000e+00
       -5  1    4    4    0  502 -4.8423160094e+01 +1.1351026735e+01 -2.7465246569e+01 5.7009455448e+01 4.7000000000e+00 0.0000e+00 -1.0000e+00
</event>
<event>
10      1 +4.6527485e-10 2.40000000e+02 7.81860800e-03 1.03012300e-01
      -11 -1    0    0    0    0 +0.0000000000e+00 +0.0000000000e+00 +1.2000000000e+02 1.2000000000e+02 0.0000000000e+00 0.0000e+00 1.0000e+00
       11 -1    0    0    0    0 -0.0000000000e+00 -0.0000000000e+00 -1.2000000000e+02 1.2000000000e+02 0.0000000000e+00 0.0000e+00 -1.0000e+00
       23  2    1    2    0    0 -3.1623094322e+01 -2.8829426594e+01 +7.3283406781e+00 1.0767781209e+02 9.8537559881e+01 0.0000e+00 0.0000e+00
       25  2    1    2    0    0 +3.1623094322e+01 +2.8829426594e+01 -7.3283406781e+00 1.3232218791e+02 1.2499720358e+02 0.0000e+00 0.0000e+00
      -11  1    3    3    0    0 +1.1617560142e+01 +3.1287127376e+01 +2.5264868925e+00 3.3469914536e+01 0.0000000000e+00 0.0000e+00 -1.0000e+00
       11  1    3    3    0    0 -4.3240654464e+01 -6.0116553970e+01 +4.8018537856e+00 7.4207897554e+01 0.0000000000e+00 0.0000e+00 1.0000e+00
        5  1    4    4  501    0 -1.3006653728e+01 -6.6672052703e+00 -1.1428367233e+01 1.9139546623e+01 4.7000000000e+00 0.0000e+00 -1.0000e+00
       -5  1    4    4    0  501 -2.8039389705e+01 -2.6749434130e+00 +1.7140605694e+00 2.8607528745e+01 4.7000000000e+00 0.0000e+00 -1.0000e+00
        5  1    4    4  502    0 +6.1488974365e+01 +2.9898200377e+01 +7.6929607563e+00 6.8964251605e+01 4.7000000000e+00 0.0000e+00 -1.0000e+00
       -5  1    4    4    0  502 +1.1180163389e+01 +8.2733749006e+00 -5.3069947704e+00 1.5610860936e+01 4.7000000000e+00 0.0000e+00 -1.0000e+00
</event>
<event>
10      1 +4.6527485e-10 2.40000000e+02 7.81860800e-03 1.03012300e-01
      -11 -1    0    0    0    0 +0.0000000000e+00 +0.0000000000e+00 +1.2000000000e+02 1.2000000000e+02 0.0000000000e+00 0.0000e+00 -1.0000e+00
       11 -1    0    0    0    0 -0.0000000000e+00 -0.0000000000e+00 -1.2000000000e+02 1.2000000000e+02 0.0000000000e+00 0.0000e+00 1.0000e+00
       23  2    1    2    0    0 -4.3246318273e+01 -5.3044017458e+00 +2.8391724170e+01 1.0461809909e+02 9.0777067229e+01 0.0000e+00 0.0000e+00
       25  2    1    2    0    0 +4.3246318273e+01 +5.3044017458e+00 -2.8391724170e+01 1.3538190091e+02 1.2499515338e+02 0.0000e+00 0.0000e+00
      -11  1    3    3    0    0 -5.7153081551e+01 +2.4534769039e+01 +3.4516610762e+01 7.1132454204e+01 0.0000000000e+00 0.0000e+00 -1.0000e+00
       11  1    3    3    0    0 +1.3906763278e+01 -2.9839170785e+01 -6.1248865916e+00 3.3485644891e+01 0.0000000000e+00 0.0000e+00 1.0000e+00
        5  1    4    4  501    0 +1.2143470911e+00 -5.4663825980e+00 -1.6275142479e-01 7.3124869635e+00 4.7000000000e+00 0.0000e+00 -1.0000e+00
       -5  1    4    4    0  502 +2.3651317788e+01 +1.7363058218e+01 -5.1706618073e+01 5.9636607687e+01 4.7000000000e+00 0.0000e+00 -1.0000e+00
        5  1    4    4  502    0 +5.7642808898e+00 +1.7500089337e+01 -1.2747086104e+01 2.2892318911e+01 4.7000000000e+00 0.0000e+00 -1.0000e+00
       -5  1    4    4    0  501 +1.2616372504e+01 -2.4092363212e+01 +3.6224731431e+01 4.5540487344e+01 4.7000000000e+00 0.0000e+00 -1.0000e+00
</event>
<event>
10      1 +4.6527485e-10 2.40000000e+02 7.81860800e-03 1.03012300e-01
      -11 -1    0    0    0    0 +0.0000000000e+00 +0.0000000000e+00 +1.2000000000e+02 1.2000000000e+02 0.0000000000e+00 0.0000e+00 -1.0000e+00
       11 -1    0    0    0    0 -0.0000000000e+00 -0.0000000000e+00 -1.2000000000e+02 1.2000000000e+02 0.0000000000e+00 0.0000e+00 1.0000e+00
       23  2    1    2    0    0 +3.3953760182e+01 +2.3041927568e+01 -3.0258783885e+00 1.0840276468e+02 1.0029065357e+02 0.0000e+00 0.0000e+00
       25  2    1    2    0    0 -3.3953760182e+01 -2.3041927568e+01 +3.0258783885e+00 1.3159723532e+02 1.2499955259e+02 0.0000e+00 0.0000e+00
      -13  1    3    3    0    0 -2.2539764864e+01 +3.8051476769e+01 +1.5844651610e+01 4.6978812981e+01 0.0000000000e+00 0.0000e+00 -1.0000e+00
       13  1    3    3    0    0 +5.6493525046e+01 -1.5009549201e+01 -1.8870529999e+01 6.1423951694e+01 0.0000000000e+00 0.0000e+00 1.0000e+00
        5  1    4    4  501    0 -2.2942611108e+01 -3.9841905200e+01 -6.7406692858e-01 4.6219965174e+01 4.7000000000e+00 0.0000e+00 1.0000e+00
       -5  1    4    4    0  502 +3.1937685767e+00 +2.2959670185e+01 -1.4043253883e+01 2.7507264356e+01 4.7000000000e+00 0.0000e+00 -1.0000e+00
        5  1    4    4  502    0 +1.1851957328e+01 +1.5750600454e+01 +3.0458566602e+00 2.0491889858e+01 4.7000000000e+00 0.0000e+00 -1.0000e+00
       -5  1    4    4    0  501 -2.6056874979e+01 -2.1910293006e+01 +1.4697342540e+01 3.7378115937e+01 4.7000000000e+00 0.0000e+00 1.0000e+00
</event>
<event>
10      1 +4.6527485e-10 2.40000000e+02 7.81860800e-03 1.03012300e-01
      -11 -1    0    0    0    0 +0.0000000000e+00 +0.0000000000e+00 +1.2000000000e+02 1.2000000000e+02 0.0000000000e+00 0.0000e+00 1.0000e+00
       11 -1    0    0    0    0 -0.0000000000e+00 -0.0000000000e+00 -1.2000000000e+02 1.2000000000e+02 0.0000000000e+00 0.0000e+00 -1.0000e+00
       23  2    1    2    0    0 +3.9484421109e+00 +4.1648632476e+01 +3.0031725861e+01 1.0480572630e+02 9.1280539686e+01 0.0000e+00 0.0000e+00
       25  2    1    2    0    0 -3.9484421109e+00 -4.1648632476e+01 -3.0031725861e+01 1.3519427370e+02 1.2500155319e+02 0.0000e+00 0.0000e+00
      -13  1    3    3    0    0 -1.9620664044e+01 +6.4050114222e+01 +2.6722082317e+01 7.2121129170e+01 0.0000000000e+00 0.0000e+00 -1.0000e+00
       13  1    3    3    0    0 +2.3569106155e+01 -2.2401481746e+01 +3.3096435437e+00 3.2684597133e+01 0.0000000000e+00 0.0000e+00 1.0000e+00
        5  1    4    4  501    0 +1.0202095486e+01 -2.2550498312e+01 -5.4079554544e+01 5.9659835283e+01 4.7000000000e+00 0.0000e+00 1.0000e+00
       -5  1    4    4    0  502 -8.3461362881e+00 +2.9217908955e+00 +3.3125203864e+01 3.4605837427e+01 4.7000000000e+00 0.0000e+00 1.0000e+00
        5  1    4    4  502    0 -1.2199856750e+01 -6.8758430363e+00 +7.9696858685e+00 1.6784505206e+01 4.7000000000e+00 0.0000e+00 -1.0000e+00
       -5  1    4    4    0  501 +6.3954554412e+00 -1.5144082023e+01 -1.7047061050e+01 2.4144095781e+01 4.7000000000e+00 0.0000e+00 1.0000e+00
</event>
<event>
10      1 +4.6527485e-10 2.40000000e+02 7.81860800e-03 1.03012300e-01
      -11 -1    0    0    0    0 +0.0000000000e+00 +0.0000000000e+00 +1.2000000000e+02 1.2000000000e+02 0.0000000000e+00 0.0000e+00 -1.0000e+00
       11 -1    0    0    0    0 -0.0000000000e+00 -0.0000000000e+00 -1.2000000000e+02 1.2000000000e+02 0.0000000000e+00 0.0000e+00 1.0000e+00
       23  2    1    2    0    0 -4.7251651853e+01 +2.4917293996e+01 +5.5590032466e+00 1.0394096634e+02 8.8990065870e+01 0.0000e+00 0.0000e+00
       25  2    1    2    0    0 +4.7251651853e+01 -2.4917293996e+01 -5.5590032466e+00 1.3605903366e+02 1.2501027150e+02 0.0000e+00 0.0000e+00
      -13  1    3    3    0    0 +2.5287322735e+01 -4.1608283631e+00 +6.1771808841e-01 2.5634795872e+01 0.0000000000e+00 0.0000e+00 -1.0000e+00
       13  1    3    3    0    0 -7.2538974588e+01 +2.9078122359e+01 +4.9412851582e+00 7.8306170467e+01 0.0000000000e+00 0.0000e+00 1.0000e+00
        5  1    4    4  501    0 +2.0987447595e+01 +5.3624664042e+00 -2.6263745416e+01 3.4367183849e+01 4.7000000000e+00 0.0000e+00 1.0000e+00
       -5  1    4    4    0  502 +1.9102585794e+01 -2.5050162801e+01 +3.0760817847e+01 4.4280214035e+01 4.7000000000e+00 0.0000e+00 -1.0000e+00
        5  1    4    4  502    0 +2.9930757354e+00 -2.6632517748e+01 +8.3828613941e+00 2.8471246357e+01 4.7000000000e+00 0.0000e+00 -1.0000e+00
       -5  1    4    4    0  501 +4.1685427288e+00 +2.1402920149e+01 -1.8438937072e+01 2.8940389419e+01 4.7000000000e+00 0.0000e+00 1.0000e+00
</event>
<event>
10      1 +4.6527485e-10 2.40000000e+02 7.81860800e-03 1.03012300e-01
      -11 -1    0    0    0    0 +0.0000000000e+00 +0.0000000000e+00 +1.2000000000e+02 1.2000000000e+02 0.0000000000e+00 0.0000e+00 1.0000e+00
       11 -1    0    0    0    0 -0.0000000000e+00 -0.0000000000e+00 -1.2000000000e+02 1.2000000000e+02 0.0000000000e+00 0.0000e+00 -1.0000e+00
       23  2    1    2    0    0 +1.5858857698e+01 +7.6601895357e+00 +4.7350114885e+01 1.0517384203e+02 9.2245985261e+01 0.0000e+00 0.0000e+00
       25  2    1    2    0    0 -1.5858857698e+01 -7.6601895357e+00 -4.7350114885e+01 1.3482615797e+02 1.2500351044e+02 0.0000e+00 0.0000e+00
      -11  1    3    3    0    0 -3.7825578186e+01 +3.7534930315e+00 +8.9412729278e+00 3.9048808389e+01 0.0000000000e+00 0.0000e+00 1.0000e+00
       11  1    3    3    0    0 +5.3684435884e+01 +3.9066965042e+00 +3.8408841957e+01 6.6125033642e+01 0.0000000000e+00 0.0000e+00 -1.0000e+00
        5  1    4    4  501    0 -4.5518894075e+00 +3.1853972449e+00 -1.8288544702e+01 1.9683173527e+01 4.7000000000e+00 0.0000e+00 -1.0000e+00
       -5  1    4    4    0  502 -9.2906370688e-02 -7.2756239679e+00 +1.1403416144e+01 1.4320308498e+01 4.7000000000e+00 0.0000e+00 -1.0000e+00
        5  1    4    4  502    0 +2.2751359840e+00 -4.3804535560e+01 -3.3345074467e+00 4.4240507674e+01 4.7000000000e+00 0.0000e+00 -1.0000e+00
       -5  1    4    4    0  501 -1.3489197904e+01 +4.0234572747e+01 -3.7130478880e+01 5.6582168270e+01 4.7000000000e+00 0.0000e+00 -1.0000e+00
</event>
<event>
10      1 +4.6527485e-10 2.40000000e+02 7.81860800e-03 1.03012300e-01
      -11 -1    0    0    0    0 +0.0000000000e+00 +0.0000000000e+00 +1.2000000000e+02 1.2000000000e+02 0.0000000000e+00 0.0000e+00 1.0000e+00
       11 -1    0    0    0    0 -0.0000000000e+00 -0.0000000000e+00 -1.2000000000e+02 1.2000000000e+02 0.0000000000e+00 0.0000e+00 -1.0000e+00
       23  2    1    2    0    0 +5.7848908120e+00 +5.2431114836e+01 -1.3871698152e+01 1.0361818177e+02 8.8101173771e+01 0.0000e+00 0.0000e+00
       25  2    1    2    0    0 -5.7848908120e+00 -5.2431114836e+01 +1.3871698152e+01 1.3638181823e+02 1.2500035827e+02 0.0000e+00 0.0000e+00
      -11  1    3    3    0    0 +1.4195421664e+00 -1.8237284810e+01 +1.8276708671e+01 2.5858301125e+01 0.0000000000e+00 0.0000e+00 1.0000e+00
       11  1    3    3    0    0 +4.3653486456e+00 +7.0668399646e+01 -3.2148406823e+01 7.7759880649e+01 0.0000000000e+00 0.0000e+00 -1.0000e+00
        5  1    4    4  501    0 +2.0197500935e+01 -4.3740055746e+01 -4.2134068656e+00 4.8589858182e+01 4.7000000000e+00 0.0000e+00 1.0000e+00
       -5  1    4    4    0  501 +1.6427339931e+01 -2.6992650522e+01 +1.1027516835e+01 3.3795810494e+01 4.7000000000e+00 0.0000e+00 1.0000e+00
        5  1    4    4  502    0 -2.5184244705e+01 +2.3631641066e+01 +3.5385188284e+00 3.5033009524e+01 4.7000000000e+00 0.0000e+00 1.0000e+00
       -5  1    4    4    0  502 -1.7225486973e+01 -5.3300496331e+00 +3.5190693548e+00 1.8963140027e+01 4.7000000000e+00 0.0000e+00 1.0000e+00
</event>
<event>
10      1 +4.6527485e-10 2.40000000e+02 7.81860800e-03 1.03012300e-01
      -11 -1    0    0    0    0 +0.0000000000e+00 +0.0000000000e+00 +1.2000000000e+02 1.2000000000e+02 0.0000000000e+00 0.0000e+00 1.0000e+00
       11 -1    0    0    0    0 -0.0000000000e+00 -0.0000000000e+00 -1.2000000000e+02 1.2000000000e+02 0.0000000000e+00 0.0000e+00 -1.0000e+00
       23  2    1    2    0    0 -3.6507782304e+01 -3.3959391849e+01 -1.2533021623e+01 1.0484063308e+02 9.1369706415e+01 0.0000e+00 0.0000e+00
       25  2    1    2    0    0 +3.6507782304e+01 +3.3959391849e+01 +1.2533021623e+01 1.3515936692e+02 1.2499967748e+02 0.0000e+00 0.0000e+00
      -11  1    3    3    0    0 -3.7189573321e+01 +2.0577299913e+01 -2.4421010710e+01 4.9019132995e+01 0.0000000000e+00 0.0000e+00 -1.0000e+00
       11  1    3    3    0    0 +6.8179101682e-01 -5.4536691762e+01 +1.1887989087e+01 5.5821500086e+01 0.0000000000e+00 0.0000e+00 1.0000e+00
        5  1    4    4  501    0 -3.6166415960e+01 +9.8559256701e+00 -2.1417095496e+01 4.3427305854e+01 4.7000000000e+00 0.0000e+00 1.0000e+00
       -5  1    4    4    0  502 +7.8449860795e+00 +9.3742570551e+00 -1.2895346857e-01 1.3096836676e+01 4.7000000000e+00 0.0000e+00 1.0000e+00
        5  1    4    4  502    0 +1.5442761325e+01 +1.0089085665e+01 +1.8209734552e+01 2.6342986910e+01 4.7000000000e+00 0.0000e+00 1.0000e+00
       -5  1    4    4    0  501 +4.9386450861e+01 +4.6401234587e+00 +1.5869336035e+01 5.2292237478e+01 4.7000000000e+00 0.0000e+00 1.0000e+00
</event>
<event>
10      1 +4.6527485e-10 2.40000000e+02 7.81860800e-03 1.03012300e-01
      -11 -1    0    0    0    0 +0.0000000000e+00 +0.0000000000e+00 +1.2000000000e+02 1.2000000000e+02 0.0000000000e+00 0.0000e+00 -1.0000e+00
       11 -1    0    0    0    0 -0.0000000000e+00 -0.0000000000e+00 -1.2000000000e+02 1.2000000000e+02 0.0000000000e+00 0.0000e+00 1.0000e+00
       23  2    1    2    0    0 -2.4748382889e+00 -4.7068406672e+01 -1.2008747875e+01 1.0586985226e+02 9.4035396849e+01 0.0000e+00 0.0000e+00
       25  2    1    2    0    0 +2.4748382889e+00 +4.7068406672e+01 +1.2008747875e+01 1.3413014774e+02 1.2500050710e+02 0.0000e+00 0.0000e+00
      -13  1    3    3    0    0 -1.2643346675e+01 -4.6568050541e+01 -4.8242342042e+01 6.8233137932e+01 0.0000000000e+00 0.0000e+00 1.0000e+00
       13  1    3    3    0    0 +1.0168508386e+01 -5.0035613118e-01 +3.6233594167e+01 3.7636714327e+01 0.0000000000e+00 0.0000e+00 -1.0000e+00
        5  1    4    4  501    0 +1.3301374787e+01 -8.1138560551e+00 +4.0036780231e+00 1.6759494892e+01 4.7000000000e+00 0.0000e+00 1.0000e+00
       -5  1    4    4    0  501 +2.8262270732e+01 +1.8432207454e+01 +1.9954966588e+01 3.9481551516e+01 4.7000000000e+00 0.0000e+00 1.0000e+00
        5  1    4    4  502    0 -2.6948474631e+01 +3.9090174922e+01 -2.9362506324e+01 5.6022395860e+01 4.7000000000e+00 0.0000e+00 1.0000e+00
       -5  1    4    4    0  502 -1.2140332600e+01 -2.3401196492e+00 +1.7412609588e+01 2.1866705473e+01 4.7000000000e+00 0.0000e+00 1.0000e+00
</event>
<event>
10      1 +4.6527485e-10 2.40000000e+02 7.81860800e-03 1.03012300e-01
      -11 -1    0    0    0    0 +0.0000000000e+00 +0.0000000000e+00 +1.2000000000e+02 1.2000000000e+02 0.0000000000e+00 0.0000e+00 -1.0000e+00
       11 -1    0    0    0    0 -0.0000000000e+00 -0.0000000000e+00 -1.2000000000e+02 1.2000000000e+02 0.0000000000e+00 0.0000e+00 1.0000e+00
       23  2    1    2    0    0 -4.0824695526e+01 -3.5431316194e+01 -6.5887040757e+00 1.0365237286e+02 8.8195064746e+01 0.0000e+00 0.0000e+00
       25  2    1    2    0    0 +4.0824695526e+01 +3.5431316194e+01 +6.5887040757e+00 1.3634762714e+02 1.2500092189e+02 0.0000e+00 0.0000e+00
      -13  1    3    3    0    0 -9.1589142078e-01 -5.6933211285e+01 +4.0624460154e+00 5.7085312226e+01 0.0000000000e+00 0.0000e+00 -1.0000e+00
       13  1    3    3    0    0 -3.9908804105e+01 +2.1501895091e+01 -1.0651150091e+01 4.6567060631e+01 0.0000000000e+00 0.0000e+00 1.0000e+00
        5  1    4    4  501    0 -2.3221903739e+01 +3.9532040044e+01 +6.4776276804e+00 4.6541257651e+01 4.7000000000e+00 0.0000e+00 -1.0000e+00
       -5  1    4    4    0  501 -4.8369812035e+00 +1.8039546851e+00 -1.3308438012e+01 1.5028478366e+01 4.7000000000e+00 0.0000e+00 -1.0000e+00
        5  1    4    4  502    0 +6.1986313298e+01 -1.1691311122e+01 +9.8709353931e+00 6.4019646653e+01 4.7000000000e+00 0.0000e+00 -1.0000e+00
       -5  1    4    4    0  502 +6.8972671704e+00 +5.7866325863e+00 +3.5485790146e+00 1.0758244473e+01 4.7000000000e+00 0.0000e+00 1.0000e+00
</event>
<event>
10      1 +4.6527485e-10 2.40000000e+02 7.81860800e-03 1.03012300e-01
      -11 -1    0    0    0    0 +0.0000000000e+00 +0.0000000000e+00 +1.2000000000e+02 1.2000000000e+02 0.0000000000e+00 0.0000e+00 1.0000e+00
       11 -1    0    0    0    0 -0.0000000000e+00 -0.0000000000e+00 -1.2000000000e+02 1.2000000000e+02 0.0000000000e+00 0.0000e+00 -1.0000e+00
       23  2    1    2    0    0 -1.1031295881e+01 +4.8788549192e+01 +1.2200941043e+01 1.0481196461e+02 9.1294429965e+01 0.0000e+00 0.0000e+00
       25  2    1    2    0    0 +1.1031295881e+01 -4.8788549192e+01 -1.2200941043e+01 1.3518803539e+02 1.2499971971e+02 0.0000e+00 0.0000e+00
      -11  1    3    3    0    0 -2.9562494919e+01 +4.9438650197e+01 -2.5348400576e+01 6.2933795777e+01 0.0000000000e+00 0.0000e+00 -1.0000e+00
       11  1    3    3    0    0 +1.8531199038e+01 -6.5010100445e-01 +3.7549341618e+01 4.1878168836e+01 0.0000000000e+00 0.0000e+00 1.0000e+00
        5  1    4    4  501    0 +2.6777398707e+01 -8.2184874163e+00 -3.1629312976e+01 4.2509717198e+01 4.7000000000e+00 0.0000e+00 -1.0000e+00
       -5  1    4    4    0  501 +4.2644558779e+00 -1.8550184630e+01 -2.4964512791e+01 3.1742902083e+01 4.7000000000e+00 0.0000e+00 -1.0000e+00
        5  1    4    4  502    0 -2.2955070680e+01 -5.9879345254e+00 +2.0938642011e+01 3.1989175655e+01 4.7000000000e+00 0.0000e+00 1.0000e+00
       -5  1    4    4    0  502 +2.9445119761e+00 -1.6031942620e+01 +2.3454242714e+01 2.8946240450e+01 4.7000000000e+00 0.0000e+00 1.0000e+00
</event>
<event>
10      1 +4.6527485e-10 2.40000000e+02 7.81860800e-03 1.03012300e-01
      -11 -1    0    0    0    0 +0.0000000000e+00 +0.0000000000e+00 +1.2000000000e+02 1.2000000000e+02 0.0000000000e+00 0.0000e+00 1.0000e+00
       11 -1    0    0    0    0 -0.0000000000e+00 -0.0000000000e+00 -1.2000000000e+02 1.2000000000e+02 0.0000000000e+00 0.0000e+00 -1.0000e+00
       23  2    1    2    0    0 +2.7266805960e+01 +3.4808081355e+01 +2.5397094380e+01 1.0499720039e+02 9.1784086048e+01 0.0000e+00 0.0000e+00
       25  2    1    2    0    0 -2.7266805960e+01 -3.4808081355e+01 -2.5397094380e+01 1.3500279961e+02 1.2500264903e+02 0.0000e+00 0.0000e+00
      -13  1    3    3    0    0 +4.1962763308e+00 -1.4597512077e+01 +4.4656723136e+01 4.7169047214e+01 0.0000000000e+00 0.0000e+00 1.0000e+00
       13  1    3    3    0    0 +2.3070529629e+01 +4.9405593432e+01 -1.9259628756e+01 5.7828153174e+01 0.0000000000e+00 0.0000e+00 -1.0000e+00
        5  1    4    4  501    0 -3.9358083675e+00 +1.9379512858e+01 -4.4343707200e+01 4.8780226264e+01 4.7000000000e+00 0.0000e+00 1.0000e+00
       -5  1    4    4    0  501 +8.1238265237e+00 -3.4613394483e+00 -1.3273094762e+01 1.6620543695e+01 4.7000000000e+00 0.0000e+00 1.0000e+00
        5  1    4    4  502    0 -1.3921991458e+01 -3.1686715632e+01 +2.2552641333e+01 4.1576212247e+01 4.7000000000e+00 0.0000e+00 -1.0000e+00
       -5  1    4    4    0  502 -1.7532832658e+01 -1.9039539132e+01 +9.6670662488e+00 2.8025817405e+01 4.7000000000e+00 0.0000e+00 -1.0000e+00
</event>
<event>
10      1 +4.6527485e-10 2.40000000e+02 7.81860800e-03 1.03012300e-01
      -11 -1    0    0    0    0 +0.0000000000e+00 +0.0000000000e+00 +1.2000000000e+02 1.2000000000e+02 0.0000000000e+00 0.0000e+00 1.0000e+00
       11 -1    0    0    0    0 -0.0000000000e+00 -0.0000000000e+00 -1.2000000000e+02 1.2000000000e+02 0.0000000000e+00 0.0000e+00 -1.0000e+00
       23  2    1    2    0    0 +4.6128595685e+01 -1.0124044407e+01 -1.9337105619e+01 1.0498383325e+02 9.1746051553e+01 0.0000e+00 0.0000e+00
       25  2    1    2    0    0 -4.6128595685e+01 +1.0124044407e+01 +1.9337105619e+01 1.3501616675e+02 1.2500039206e+02 0.0000e+00 0.0000e+00
      -13  1    3    3    0    0 +3.9184618249e+01 -1.7627334814e+01 +3.1405946124e+01 5.3221148915e+01 0.0000000000e+00 0.0000e+00 1.0000e+00
       13  1    3    3    0    0 +6.9439774365e+00 +7.5032904065e+00 -5.0743051743e+01 5.1762684337e+01 0.0000000000e+00 0.0000e+00 -1.0000e+00
        5  1    4    4  501    0 -1.0535614473e+01 -1.4460098632e+01 -6.9687789010e-01 1.8511327979e+01 4.7000000000e+00 0.0000e+00 -1.0000e+00
       -5  1    4    4    0  502 -4.7314192711e-01 +3.6180684207e+01 +4.3572786924e+01 5.6832592175e+01 4.7000000000e+00 0.0000e+00 -1.0000e+00
        5  1    4    4  502    0 -6.9407186847e+00 +9.8134371903e+00 +5.1270627740e+00 1.3887184669e+01 4.7000000000e+00 0.0000e+00 -1.0000e+00
       -5  1    4    4    0  501 -2.8179120600e+01 -2.1409978358e+01 -2.8665866189e+01 4.5785061925e+01 4.7000000000e+00 0.0000e+00 -1.0000e+00
</event>
<event>
10      1 +4.6527485e-10 2.40000000e+02 7.81860800e-03 1.03012300e-01
      -11 -1    0    0    0    0 +0.0000000000e+00 +0.0000000000e+00 +1.2000000000e+02 1.2000000000e+02 0.0000000000e+00 0.0000e+00 -1.0000e+00
       11 -1    0    0    0    0 -0.0000000000e+00 -0.0000000000e+00 -1.2000000000e+02 1.2000000000e+02 0.0000000000e+00 0.0000e+00 1.0000e+00
       23  2    1    2    0    0 -1.0868480173e+01 +4.0377607333e+01 +3.1479276275e+01 1.0448531468e+02 9.0430974302e+01 0.0000e+00 0.0000e+00
       25  2    1    2    0    0 +1.0868480173e+01 -4.0377607333e+01 -3.1479276275e+01 1.3551468532e+02 1.2499924027e+02 0.0000e+00 0.0000e+00
      -13  1    3    3    0    0 +1.2639581707e+01 -9.5064323813e+00 +4.5006740755e+01 4.7704695741e+01 0.0000000000e+00 0.0000e+00 -1.0000e+00
       13  1    3    3    0    0 -2.3508061880e+01 +4.9884039715e+01 -1.3527464480e+01 5.6780618937e+01 0.0000000000e+00 0.0000e+00 1.0000e+00
        5  1    4    4  501    0 +1.9708389864e+01 +1.7202790484e+01 -1.6448593618e-01 2.6579572741e+01 4.7000000000e+00 0.0000e+00 -1.0000e+00
       -5  1    4    4    0  502 -1.3514120810e+01 -3.1370763386e+01 -7.8590602270e+00 3.5363980041e+01 4.7000000000e+00 0.0000e+00 1.0000e+00
        5  1    4    4  502    0 -2.0856117519e+01 -3.1808190452e+01 -2.6855880740e+01 4.6798151119e+01 4.7000000000e+00 0.0000e+00 1.0000e+00
       -5  1    4    4    0  501 +2.5530328639e+01 +5.5985560208e+00 +3.4001506287e+00 2.6772981422e+01 4.7000000000e+00 0.0000e+00 -1.0000e+00
</event>
<event>
10      1 +4.6527485e-10 2.40000000e+02 7.81860800e-03 1.03012300e-01
      -11 -1    0    0    0    0 +0.0000000000e+00 +0.0000000000e+00 +1.2000000000e+02 1.2000000000e+02 0.0000000000e+00 0.0000e+00 1.0000e+00
       11 -1    0    0    0    0 -0.0000000000e+00 -0.0000000000e+00 -1.2000000000e+02 1.2000000000e+02 0.0000000000e+00 0.0000e+00 -1.0000e+00
       23  2    1    2    0    0 -3.8650288816e+01 -3.4332784905e+01 -1.1836003694e+01 1.0420659290e+02 8.9701382791e+01 0.0000e+00 0.0000e+00
       25  2    1    2    0    0 +3.8650288816e+01 +3.4332784905e+01 +1.1836003694e+01 1.3579340710e+02 1.2500869364e+02 0.0000e+00 0.0000e+00
      -11  1    3    3    0    0 -1.1768530563e+01 -4.7031711538e+01 +2.6846870549e+01 5.5418721206e+01 0.0000000000e+00 0.0000e+00 1.0000e+00
       11  1    3    3    0    0 -2.6881758253e+01 +1.2698926633e+01 -3.8682874243e+01 4.8787871690e+01 0.0000000000e+00 0.0000e+00 -1.0000e+00
        5  1    4    4  501    0 +3.4724892990e+01 +5.5267347870e+01 -2.6604614390e+00 6.5494014909e+01 4.7000000000e+00 0.0000e+00 1.0000e+00
       -5  1    4    4    0  502 +3.7839267859e-01 -3.2015701881e+01 +5.5364453243e+00 3.2831243881e+01 4.7000000000e+00 0.0000e+00 -1.0000e+00
        5  1    4    4  502    0 -1.3422769597e+01 +9.2787886570e-01 -1.9733768989e+00 1.4388047791e+01 4.7000000000e+00 0.0000e+00 -1.0000e+00
       -5  1    4    4    0  501 +1.6969772744e+01 +1.0153260050e+01 +1.0933396708e+01 2.3080100524e+01 4.7000000000e+00 0.0000e+00 1.0000e+00
</event>
<event>
10      1 +4.6527485e-10 2.40000000e+02 7.81860800e-03 1.03012300e-01
      -11 -1    0    0    0    0 +0.0000000000e+00 +0.0000000000e+00 +1.2000000000e+02 1.2000000000e+02 0.0000000000e+00 0.0000e+00 -1.0000e+00
       11 -1    0    0    0    0 -0.0000000000e+00 -0.0000000000e+00 -1.2000000000e+02 1.2000000000e+02 0.0000000000e+00 0.0000e+00 1.0000e+00
       23  2    1    2    0    0 +4.2472072036e+01 +1.8114919248e+00 +3.0012292757e+01 1.0461312926e+02 9.0752469334e+01 0.0000e+00 0.0000e+00
       25  2    1    2    0    0 -4.2472072036e+01 -1.8114919248e+00 -3.0012292757e+01 1.3538687074e+02 1.2498683390e+02 0.0000e+00 0.0000e+00
      -13  1    3    3    0    0 +1.9943733658e+00 -3.9745628621e+01 +1.1373361724e+00 3.9811883316e+01 0.0000000000e+00 0.0000e+00 1.0000e+00
       13  1    3    3    0    0 +4.0477698670e+01 +4.1557120546e+01 +2.8874956585e+01 6.4801245940e+01 0.0000000000e+00 0.0000e+00 -1.0000e+00
        5  1    4    4  501    0 -1.5656078054e+01 -1.5082414214e+01 -1.0047806466e+01 2.4405745498e+01 4.7000000000e+00 0.0000e+00 1.0000e+00
       -5  1    4    4    0  502 +1.0718295416e+00 +2.8403547945e+01 +2.0395216505e+01 3.5298232402e+01 4.7000000000e+00 0.0000e+00 -1.0000e+00
        5  1    4    4  502    0 -5.5780294366e+00 +3.1616578727e+00 +1.2770038061e+01 1.5042418854e+01 4.7000000000e+00 0.0000e+00 -1.0000e+00
       -5  1    4    4    0  501 -2.2309794087e+01 -1.8294283528e+01 -5.3129740857e+01 6.0640473989e+01 4.7000000000e+00 0.0000e+00 1.0000e+00
</event>
<event>
10      1 +4.6527485e-10 2.40000000e+02 7.81860800e-03 1.03012300e-01
      -11 -1    0    0    0    0 +0.0000000000e+00 +0.0000000000e+00 +1.2000000000e+02 1.2000000000e+02 0.0000000000e+00 0.0000e+00 1.0000e+00
       11 -1    0    0    0    0 -0.0000000000e+00 -0.0000000000e+00 -1.2000000000e+02 1.2000000000e+02 0.0000000000e+00 0.0000e+00 -1.0000e+00
       23  2    1    2    0    0 -4.1905290780e+01 -1.0174630415e+00 +3.6583850071e+01 1.0316576551e+02 8.6877548658e+01 0.0000e+00 0.0000e+00
       25  2    1    2    0    0 +4.1905290780e+01 +1.0174630415e+00 -3.6583850071e+01 1.3683423449e+02 1.2501256343e+02 0.0000e+00 0.0000e+00
      -13  1    3    3    0    0 -3.4060952959e+01 +2.8808007066e+01 +5.2144324311e+01 6.8622739273e+01 0.0000000000e+00 0.0000e+00 1.0000e+00
       13  1    3    3    0    0 -7.8443378217e+00 -2.9825470107e+01 -1.5560474240e+01 3.4543026236e+01 0.0000000000e+00 0.0000e+00 -1.0000e+00
        5  1    4    4  501    0 +1.3190989827e+01 -1.3127622638e+01 +5.2914064439e+00 1.9910441253e+01 4.7000000000e+00 0.0000e+00 -1.0000e+00
       -5  1    4    4    0  502 -8.7160396448e+00 -4.6502272004e+00 +1.3785563153e+01 1.7599025870e+01 4.7000000000e+00 0.0000e+00 1.0000e+00
        5  1    4    4  502    0 -1.4395590771e+00 +1.2294860409e+01 +1.3925429582e+01 1.9215710028e+01 4.7000000000e+00 0.0000e+00 1.0000e+00
       -5  1    4    4    0  501 +3.8869899675e+01 +6.5004524707e+00 -6.9586249250e+01 8.0109057339e+01 4.7000000000e+00 0.0000e+00 -1.0000e+00
</event>
<event>
10      1 +4.6527485e-10 2.40000000e+02 7.81860800e-03 1.03012300e-01
      -11 -1    0    0    0    0 +0.0000000000e+00 +0.0000000000e+00 +1.2000000000e+02 1.2000000000e+02 0.0000000000e+00 0.0000e+00 1.0000e+00
       11 -1    0    0    0    0 -0.0000000000e+00 -0.0000000000e+00 -1.2000000000e+02 1.2000000000e+02 0.0000000000e+00 0.0000e+00 -1.0000e+00
       23  2    1    2    0    0 +2.3282121981e+01 +4.1915126226e+01 +1.9936442455e+01 1.0464239762e+02 9.0849516412e+01 0.0000e+00 0.0000e+00
       25  2    1    2    0    0 -2.3282121981e+01 -4.1915126226e+01 -1.9936442455e+01 1.3535760238e+02 1.2500113509e+02 0.0000e+00 0.0000e+00
      -13  1    3    3    0    0 +4.1052771260e+01 +5.5302398148e+00 +4.1610375023e+01 5.8714026349e+01 0.0000000000e+00 0.0000e+00 1.0000e+00
       13  1    3    3    0    0 -1.7770649280e+01 +3.6384886411e+01 -2.1673932568e+01 4.5928371275e+01 0.0000000000e+00 0.0000e+00 -1.0000e+00
        5  1    4    4  501    0 -2.2008031878e+00 -4.8129764774e+01 -1.6132348014e+01 5.1026076121e+01 4.7000000000e+00 0.0000e+00 1.0000e+00
       -5  1    4    4    0  502 +2.2778822109e+00 +1.3943223319e+01 +1.8280493381e+00 1.5001132900e+01 4.7000000000e+00 0.0000e+00 1.0000e+00
        5  1    4    4  502    0 -9.8155413624e+00 +2.6085395210e+01 +9.1955560245e+00 2.9722734499e+01 4.7000000000e+00 0.0000e+00 1.0000e+00
       -5  1    4    4    0  501 -1.3543659641e+01 -3.3813979981e+01 -1.4827699804e+01 3.9607658857e+01 4.7000000000e+00 0.0000e+00 1.0000e+00
</event>
<event>
10      1 +4.6527485e-10 2.40000000e+02 7.81860800e-03 1.03012300e-01
      -11 -1    0    0    0    0 +0.0000000000e+00 +0.0000000000e+00 +1.2000000000e+02 1.2000000000e+02 0.0000000000e+00 0.0000e+00 1.0000e+00
       11 -1    0    0    0    0 -0.0000000000e+00 -0.0000000000e+00 -1.2000000000e+02 1.2000000000e+02 0.0000000000e+00 0.0000e+00 -1.0000e+00
       23  2    1    2    0    0 +3.4466471931e+01 -2.4438590291e+01 -4.3566992186e+01 1.0105736609e+02 8.0804245252e+01 0.0000e+00 0.0000e+00
       25  2    1    2    0    0 -3.4466471931e+01 +2.4438590291e+01 +4.3566992186e+01 1.3894263391e+02 1.2498716064e+02 0.0000e+00 0.0000e+00
      -11  1    3    3    0    0 +2.9274706880e+01 -1.7111809420e+01 +1.8306905494e+01 3.8535247155e+01 0.0000000000e+00 0.0000e+00 1.0000e+00
       11  1    3    3    0    0 +5.1917650512e+00 -7.3267808706e+00 -6.1873897680e+01 6.2522118938e+01 0.0000000000e+00 0.0000e+00 -1.0000e+00
        5  1    4    4  501    0 -2.4305714555e+01 +2.2468292795e+01 -1.3312119235e+01 3.5984641997e+01 4.7000000000e+00 0.0000e+00 -1.0000e+00
       -5  1    4    4    0  502 +7.6957075339e-01 +7.1057802170e+00 +2.7994279182e+00 9.0006193290e+00 4.7000000000e+00 0.0000e+00 1.0000e+00
        5  1    4    4  502    0 +6.8142201001e+00 -2.9341825039e+01 +5.5739881823e+01 6.3532674411e+01 4.7000000000e+00 0.0000e+00 1.0000e+00
       -5  1    4    4    0  501 -1.7744548230e+01 +2.4206342317e+01 -1.6601983200e+00 3.0424698170e+01 4.7000000000e+00 0.0000e+00 -1.0000e+00
</event>
<event>
10      1 +4.6527485e-10 2.40000000e+02 7.81860800e-03 1.03012300e-01
      -11 -1    0    0    0    0 +0.0000000000e+00 +0.0000000000e+00 +1.2000000000e+02 1.2000000000e+02 0.0000000000e+00 0.0000e+00 -1.0000e+00
       11 -1    0    0    0    0 -0.0000000000e+00 -0.0000000000e+00 -1.2000000000e+02 1.2000000000e+02 0.0000000000e+00 0.0000e+00 1.0000e+00
       23  2    1    2    0    0 -2.7599275525e+01 -1.0685668212e+01 -2.6223186537e+01 1.0889996853e+02 1.0146745349e+02 0.0000e+00 0.0000e+00
       25  2    1    2    0    0 +2.7599275525e+01 +1.0685668212e+01 +2.6223186537e+01 1.3110003147e+02 1.2499463679e+02 0.0000e+00 0.0000e+00
      -11  1    3    3    0    0 +5.3201033211e+00 -1.6762741948e+01 +3.4973147655e+01 3.9146060770e+01 0.0000000000e+00 0.0000e+00 -1.0000e+00
       11  1    3    3    0    0 -3.2919378846e+01 +6.0770737363e+00 -6.1196334191e+01 6.9753907756e+01 0.0000000000e+00 0.0000e+00 1.0000e+00
        5  1    4    4  501    0 +3.1333125532e+01 -1.5417165598e+01 +4.9406976144e+00 3.5580250752e+01 4.7000000000e+00 0.0000e+00 -1.0000e+00
       -5  1    4    4    0  502 -1.5593689323e+01 +1.7742726712e+01 -1.8845903476e+01 3.0581458038e+01 4.7000000000e+00 0.0000e+00 -1.0000e+00
        5  1    4    4  502    0 -1.1713974693e+01 +2.0493423052e+01 +1.7357923333e+01 2.9674654066e+01 4.7000000000e+00 0.0000e+00 -1.0000e+00
       -5  1    4    4    0  501 +2.3573814008e+01 -1.2133315955e+01 +2.2770469066e+01 3.5263668618e+01 4.7000000000e+00 0.0000e+00 -1.0000e+00
</event>
<event>
10      1 +4.6527485e-10 2.40000000e+02 7.81860800e-03 1.03012300e-01
      -11 -1    0    0    0    0 +0.0000000000e+00 +0.0000000000e+00 +1.2000000000e+02 1.2000000000e+02 0.0000000000e+00 0.0000e+00 -1.0000e+00
       11 -1    0    0    0    0 -0.0000000000e+00 -0.0000000000e+00 -1.2000000000e+02 1.2000000000e+02 0.0000000000e+00 0.0000e+00 1.0000e+00
       23  2    1    2    0    0 +4.4858036149e+01 -5.2424618557e+00 -2.2712917448e+01 1.0516128488e+02 9.2213298415e+01 0.0000e+00 0.0000e+00
       25  2    1    2    0    0 -4.4858036149e+01 +5.2424618557e+00 +2.2712917448e+01 1.3483871512e+02 1.2500350260e+02 0.0000e+00 0.0000e+00
      -13  1    3    3    0    0 +4.6129416328e+01 +1.9393437359e+01 -4.8350321328e+01 6.9582914828e+01 0.0000000000e+00 0.0000e+00 1.0000e+00
       13  1    3    3    0    0 -1.2713801784e+00 -2.4635899215e+01 +2.5637403880e+01 3.5578370050e+01 0.0000000000e+00 0.0000e+00 -1.0000e+00
        5  1    4    4  501    0 +4.6404103186e-01 +1.1671530760e+00 +8.6145055332e+00 9.8932950003e+00 4.7000000000e+00 0.0000e+00 -1.0000e+00
       -5  1    4    4    0  502 -7.5494242432e+00 -4.1671421620e+01 +3.5461061070e+01 5.5435350080e+01 4.7000000000e+00 0.0000e+00 -1.0000e+00
        5  1    4    4  502    0 -3.8000749539e+01 +4.7577806413e+01 -1.9220025573e+01 6.4025026448e+01 4.7000000000e+00 0.0000e+00 1.0000e+00
       -5  1    4    4    0  501 +2.2809660131e-01 -1.8310760135e+00 -2.1426235817e+00 5.4850435950e+00 4.7000000000e+00 0.0000e+00 1.0000e+00
</event>
<event>
10      1 +4.6527485e-10 2.40000000e+02 7.81860800e-03 1.03012300e-01
      -11 -1    0    0    0    0 +0.0000000000e+00 +0.0000000000e+00 +1.2000000000e+02 1.2000000000e+02 0.0000000000e+00 0.0000e+00 1.0000e+00
       11 -1    0    0    0    0 -0.0000000000e+00 -0.0000000000e+00 -1.2000000000e+02 1.2000000000e+02 0.0000000000e+00 0.0000e+00 -1.0000e+00
       23  2    1    2    0    0 -1.9450624597e+01 -3.2010056213e+01 -3.6503911602e+01 1.0450072986e+02 9.0470417729e+01 0.0000e+00 0.0000e+00
       25  2    1    2    0    0 +1.9450624597e+01 +3.2010056213e+01 +3.6503911602e+01 1.3549927014e+02 1.2499818458e+02 0.0000e+00 0.0000e+00
      -13  1    3    3    0    0 -3.8777481449e+01 +5.6075533986e+00 -4.6737759315e+01 6.0988161707e+01 0.0000000000e+00 0.0000e+00 1.0000e+00
       13  1    3    3    0    0 +1.9326856852e+01 -3.7617609612e+01 +1.0233847713e+01 4.3512568158e+01 0.0000000000e+00 0.0000e+00 -1.0000e+00
        5  1    4    4  501    0 -6.0614977937e+00 -1.2760880033e+01 +5.0661660594e+00 1.5726978517e+01 4.7000000000e+00 0.0000e+00 1.0000e+00
       -5  1    4    4    0  502 +1.4681613245e+01 +1.0938562585e+01 +4.3146472517e+00 1.9388349589e+01 4.7000000000e+00 0.0000e+00 -1.0000e+00
        5  1    4    4  502    0 +3.4671346533e+01 +4.2707289826e+01 -9.0148784760e+00 5.5940798248e+01 4.7000000000e+00 0.0000e+00 -1.0000e+00
       -5  1    4    4    0  501 -2.3840837388e+01 -8.8749161643e+00 +3.6137976767e+01 4.4443143781e+01 4.7000000000e+00 0.0000e+00 1.0000e+00
</event>
<event>
10      1 +4.6527485e-10 2.40000000e+02 7.81860800e-03 1.03012300e-01
      -11 -1    0    0    0    0 +0.0000000000e+00 +0.0000000000e+00 +1.2000000000e+02 1.2000000000e+02 0.0000000000e+00 0.0000e+00 -1.0000e+00
       11 -1    0    0    0    0 -0.0000000000e+00 -0.0000000000e+00 -1.2000000000e+02 1.2000000000e+02 0.0000000000e+00 0.0000e+00 1.0000e+00
       23  2    1    2    0    0 +4.7257234576e+01 +1.3071961069e+01 +1.6724105954e+01 1.0469379316e+02 9.0977866646e+01 0.0000e+00 0.0000e+00
       25  2    1    2    0    0 -4.7257234576e+01 -1.3071961069e+01 -1.6724105954e+01 1.3530620684e+02 1.2499580595e+02 0.0000e+00 0.0000e+00
      -13  1    3    3    0    0 +2.5814730569e+00 -3.5769945436e+01 +1.3832354843e+01 3.8438093607e+01 0.0000000000e+00 0.0000e+00 -1.0000e+00
       13  1    3    3    0    0 +4.4675761519e+01 +4.8841906505e+01 +2.8917511111e+00 6.6255699550e+01 0.0000000000e+00 0.0000e+00 1.0000e+00
        5  1    4    4  501    0 +7.8445430174e+00 -3.5420261038e+00 +1.2071151930e+01 1.5552668999e+01 4.7000000000e+00 0.0000e+00 1.0000e+00
       -5  1    4    4    0  501 +2.5482859783e+01 -1.6944542520e+01 +6.0477961551e-01 3.0966908505e+01 4.7000000000e+00 0.0000e+00 1.0000e+00
        5  1    4    4  502    0 -2.8885651473e+01 +9.2868434088e+00 -3.9996353790e+00 3.0963097466e+01 4.7000000000e+00 0.0000e+00 1.0000e+00
       -5  1    4    4    0  502 -5.1698985904e+01 -1.8722358539e+00 -2.5400402120e+01 5.7823531875e+01 4.7000000000e+00 0.0000e+00 1.0000e+00
</event>
<event>
10      1 +4.6527485e-10 2.40000000e+02 7.81860800e-03 1.03012300e-01
      -11 -1    0    0    0    0 +0.0000000000e+00 +0.0000000000e+00 +1.2000000000e+02 1.2000000000e+02 0.0000000000e+00 0.0000e+00 1.0000e+00
       11 -1    0    0    0    0 -0.0000000000e+00 -0.0000000000e+00 -1.2000000000e+02 1.2000000000e+02 0.0000000000e+00 0.0000e+00 -1.0000e+00
       23  2    1    2    0    0 -1.0358733234e+01 +4.4436629085e+01 -2.2079858417e+01 1.0511553762e+02 9.2086039896e+01 0.0000e+00 0.0000e+00
       25  2    1    2    0    0 +1.0358733234e+01 -4.4436629085e+01 +2.2079858417e+01 1.3488446238e+02 1.2499752271e+02 0.0000e+00 0.0000e+00
      -13  1    3    3    0    0 +2.6939633056e+00 -6.5264298262e+00 -4.6558850094e+01 4.7091169519e+01 0.0000000000e+00 0.0000e+00 -1.0000e+00
       13  1    3    3    0    0 -1.3052696539e+01 +5.0963058912e+01 +2.4478991677e+01 5.8024368106e+01 0.0000000000e+00 0.0000e+00 1.0000e+00
        5  1    4    4  501    0 +1.9614494082e+01 -3.6091300024e+01 +1.0321352863e+01 4.2613737696e+01 4.7000000000e+00 0.0000e+00 -1.0000e+00
       -5  1    4    4    0  501 -1.9513626792e+01 -2.3942794447e+01 +3.8027261229e+01 4.9215867696e+01 4.7000000000e+00 0.0000e+00 -1.0000e+00
        5  1    4    4  502    0 +1.5199229443e+01 +7.3209680895e+00 -2.7135095238e+01 3.2295766642e+01 4.7000000000e+00 0.0000e+00 1.0000e+00
       -5  1    4    4    0  502 -4.9413634988e+00 +8.2764972962e+00 +8.6633956412e-01 1.0759090341e+01 4.7000000000e+00 0.0000e+00 1.0000e+00
</event>
<event>
10      1 +4.6527485e-10 2.40000000e+02 7.81860800e-03 1.03012300e-01
      -11 -1    0    0    0    0 +0.0000000000e+00 +0.0000000000e+00 +1.2000000000e+02 1.2000000000e+02 0.0000000000e+00 0.0000e+00 1.0000e+00
       11 -1    0    0    0    0 -0.0000000000e+00 -0.0000000000e+00 -1.2000000000e+02 1.2000000000e+02 0.0000000000e+00 0.0000e+00 -1.0000e+00
       23  2    1    2    0    0 +1.5841027417e+01 +5.1041375884e+01 +2.5253833102e+01 1.0173065026e+02 8.2796189004e+01 0.0000e+00 0.0000e+00
       25  2    1    2    0    0 -1.5841027417e+01 -5.1041375884e+01 -2.5253833102e+01 1.3826934974e+02 1.2499798714e+02 0.0000e+00 0.0000e+00
      -11  1    3    3    0    0 +3.4421265221e+01 -2.8960410891e+00 +2.8221358456e+01 4.4605556005e+01 0.0000000000e+00 0.0000e+00 1.0000e+00
       11  1    3    3    0    0 -1.8580237804e+01 +5.3937416973e+01 -2.9675253545e+00 5.7125094252e+01 0.0000000000e+00 0.0000e+00 -1.0000e+00
        5  1    4    4  501    0 +3.5495242463e+01 -1.4576058945e+01 -2.2344692830e+01 4.4651416882e+01 4.7000000000e+00 0.0000e+00 -1.0000e+00
       -5  1    4    4    0  502 -5.2499953982e+00 +2.1394751760e+00 +4.5095557585e+00 8.6351548248e+00 4.7000000000e+00 0.0000e+00 -1.0000e+00
        5  1    4    4  502    0 -4.8615962606e+01 -3.9557058834e+00 +6.5670139900e-01 4.9006945282e+01 4.7000000000e+00 0.0000e+00 -1.0000e+00
       -5  1    4    4    0  501 +2.5296881235e+00 -3.4649086232e+01 -8.0753974293e+00 3.5975832754e+01 4.7000000000e+00 0.0000e+00 -1.0000e+00
</event>
<event>
10      1 +4.6527485e-10 2.40000000e+02 7.81860800e-03 1.03012300e-01
      -11 -1    0    0    0    0 +0.0000000000e+00 +0.0000000000e+00 +1.2000000000e+02 1.2000000000e+02 0.0000000000e+00 0.0000e+00 1.0000e+00
       11 -1    0    0    0    0 -0.0000000000e+00 -0.0000000000e+00 -1.2000000000e+02 1.2000000000e+02 0.0000000000e+00 0.0000e+00 -1.0000e+00
       23  2    1    2    0    0 +2.5691502424e+01 -2.9126624042e+01 -3.3786841135e+01 1.0481556698e+02 9.1303553724e+01 0.0000e+00 0.0000e+00
       25  2    1    2    0    0 -2.5691502424e+01 +2.9126624042e+01 +3.3786841135e+01 1.3518443302e+02 1.2499946709e+02 0.0000e+00 0.0000e+00
      -13  1    3    3    0    0 -7.8455931850e-01 +2.4922556674e+01 +1.3427591064e+01 2.8320479626e+01 0.0000000000e+00 0.0000e+00 1.0000e+00
       13  1    3    3    0    0 +2.6476061742e+01 -5.4049180715e+01 -4.7214432199e+01 7.6495087354e+01 0.0000000000e+00 0.0000e+00 -1.0000e+00
        5  1    4    4  501    0 -1.5567766337e+00 +4.7304625697e+01 +3.6698818468e+01 6.0075323077e+01 4.7000000000e+00 0.0000e+00 -1.0000e+00
       -5  1    4    4    0  502 -3.3320911904e+00 -2.1340897846e+01 -6.4059360788e+00 2.3014403525e+01 4.7000000000e+00 0.0000e+00 1.0000e+00
        5  1    4    4  502    0 -2.4588731446e+01 -1.6188620676e+01 -4.7936922672e+00 3.0195142641e+01 4.7000000000e+00 0.0000e+00 1.0000e+00
       -5  1    4    4    0  501 +3.7860968464e+00 +1.9351516866e+01 +8.2876510127e+00 2.1899563778e+01 4.7000000000e+00 0.0000e+00 -1.0000e+00
</event>
<event>
10      1 +4.6527485e-10 2.40000000e+02 7.81860800e-03 1.03012300e-01
      -11 -1    0    0    0    0 +0.0000000000e+00 +0.0000000000e+00 +1.2000000000e+02 1.2000000000e+02 0.0000000000e+00 0.0000e+00 1.0000e+00
       11 -1    0    0    0    0 -0.0000000000e+00 -0.0000000000e+00 -1.2000000000e+02 1.2000000000e+02 0.0000000000e+00 0.0000e+00 -1.0000e+00
       23  2    1    2    0    0 -3.1721727006e+01 -3.7967990588e+01 +4.9965618900e+00 1.0547180356e+02 9.3013436886e+01 0.0000e+00 0.0000e+00
       25  2    1    2    0    0 +3.1721727006e+01 +3.7967990588e+01 -4.9965618900e+00 1.3452819644e+02 1.2500013494e+02 0.0000e+00 0.0000e+00
      -11  1    3    3    0    0 -2.2479204206e+01 -4.8498571576e+00 -4.1617566042e+01 4.7548475679e+01 0.0000000000e+00 0.0000e+00 -1.0000e+00
       11  1    3    3    0    0 -9.2425227995e+00 -3.3118133431e+01 +4.6614127932e+01 5.7923327878e+01 0.0000000000e+00 0.0000e+00 1.0000e+00
        5  1    4    4  501    0 +1.3752911726e+00 +1.0352456036e+01 -3.3305754994e+01 3.5219711633e+01 4.7000000000e+00 0.0000e+00 -1.0000e+00
       -5  1    4    4    0  501 +1.7276315153e+01 +1.4540682896e+01 -2.7127083779e+01 3.5607179033e+01 4.7000000000e+00 0.0000e+00 -1.0000e+00
        5  1    4    4  502    0 -1.3271797210e+00 +1.1937753926e+01 +1.1740608548e+01 1.7441423792e+01 4.7000000000e+00 0.0000e+00 1.0000e+00
       -5  1    4    4    0  502 +1.4397300401e+01 +1.1370977299e+00 +4.3695668335e+01 4.6259881985e+01 4.7000000000e+00 0.0000e+00 1.0000e+00
</event>
<event>
10      1 +4.6527485e-10 2.40000000e+02 7.81860800e-03 1.03012300e-01
      -11 -1    0    0    0    0 +0.0000000000e+00 +0.0000000000e+00 +1.2000000000e+02 1.2000000000e+02 0.0000000000e+00 0.0000e+00 1.0000e+00
       11 -1    0    0    0    0 -0.0000000000e+00 -0.0000000000e+00 -1.2000000000e+02 1.2000000000e+02 0.0000000000e+00 0.0000e+00 -1.0000e+00
       23  2    1    2    0    0 -7.8263132941e+00 +4.4643217594e+01 +2.2068023296e+01 1.0522074925e+02 9.2358758997e+01 0.0000e+00 0.0000e+00
       25  2    1    2    0    0 +7.8263132941e+00 -4.4643217594e+01 -2.2068023296e+01 1.3477925075e+02 1.2499672285e+02 0.0000e+00 0.0000e+00
      -13  1    3    3    0    0 +1.9367380283e+01 +6.2075510602e+01 +3.0518785635e+01 7.1832170454e+01 0.0000000000e+00 0.0000e+00 1.0000e+00
       13  1    3    3    0    0 -2.7193693577e+01 -1.7432293008e+01 -8.4507623388e+00 3.3388578795e+01 0.0000000000e+00 0.0000e+00 -1.0000e+00
        5  1    4    4  501    0 +3.1602860358e+01 -1.1070796811e-02 +3.1493076675e+01 4.4862509781e+01 4.7000000000e+00 0.0000e+00 -1.0000e+00
       -5  1    4    4    0  501 +1.2642885084e+01 -3.7107137920e+00 -1.2986971577e+01 1.9088304556e+01 4.7000000000e+00 0.0000e+00 -1.0000e+00
        5  1    4    4  502    0 -8.9562081065e+00 -2.0819252986e+01 -2.1186356239e+01 3.1378442429e+01 4.7000000000e+00 0.0000e+00 1.0000e+00
       -5  1    4    4    0  502 -2.7463224041e+01 -2.0102180019e+01 -1.9387772155e+01 3.9449993984e+01 4.7000000000e+00 0.0000e+00 1.0000e+00
</event>
<event>
10      1 +4.6527485e-10 2.40000000e+02 7.81860800e-03 1.03012300e-01
      -11 -1    0    0    0    0 +0.0000000000e+00 +0.0000000000e+00 +1.2000000000e+02 1.2000000000e+02 0.0000000000e+00 0.0000e+00 1.0000e+00
       11 -1    0    0    0    0 -0.0000000000e+00 -0.0000000000e+00 -1.2000000000e+02 1.2000000000e+02 0.0000000000e+00 0.0000e+00 -1.0000e+00
       23  2    1    2    0    0 -4.7814312150e+01 -1.1235108742e+01 -1.5580779275e+01 1.0479484195e+02 9.1251093699e+01 0.0000e+00 0.0000e+00
       25  2    1    2    0    0 +4.7814312150e+01 +1.1235108742e+01 +1.5580779275e+01 1.3520515805e+02 1.2500095186e+02 0.0000e+00 0.0000e+00
      -11  1    3    3    0    0 -2.1046395135e+01 +2.2599616507e+01 -4.3543271533e+01 5.3382674251e+01 0.0000000000e+00 0.0000e+00 -1.0000e+00
       11  1    3    3    0    0 -2.6767917015e+01 -3.3834725248e+01 +2.7962492258e+01 5.1412167696e+01 0.0000000000e+00 0.0000e+00 1.0000e+00
        5  1    4    4  501    0 +2.2327538421e+01 -1.5553161754e+00 +5.0736128616e+01 5.5652338022e+01 4.7000000000e+00 0.0000e+00 -1.0000e+00
       -5  1    4    4    0  501 +2.0680546299e+01 +2.6833782622e+01 -4.1213389579e+01 5.3557169134e+01 4.7000000000e+00 0.0000e+00 -1.0000e+00
        5  1    4    4  502    0 -4.1035924315e+00 -1.2571741082e+01 +7.1600567591e+00 1.5755778542e+01 4.7000000000e+00 0.0000e+00 -1.0000e+00
       -5  1    4    4    0  502 +8.9098198607e+00 -1.4716166227e+00 -1.1020165210e+00 1.0239872355e+01 4.7000000000e+00 0.0000e+00 -1.0000e+00
</event>
<event>
10      1 +4.6527485e-10 2.40000000e+02 7.81860800e-03 1.03012300e-01
      -11 -1    0    0    0    0 +0.0000000000e+00 +0.0000000000e+00 +1.2000000000e+02 1.2000000000e+02 0.0000000000e+00 0.0000e+00 1.0000e+00
       11 -1    0    0    0    0 -0.0000000000e+00 -0.0000000000e+00 -1.2000000000e+02 1.2000000000e+02 0.0000000000e+00 0.0000e+00 -1.0000e+00
       23  2    1    2    0    0 +2.9722814491e+01 +3.4689517359e+00 -4.1044521137e+01 1.0507296025e+02 9.1979317965e+01 0.0000e+00 0.0000e+00
       25  2    1    2    0    0 -2.9722814491e+01 -3.4689517359e+00 +4.1044521137e+01 1.3492703975e+02 1.2500069605e+02 0.0000e+00 0.0000e+00
      -11  1    3    3    0    0 +1.2049011486e+01 -3.0199870864e+01 +1.6217737366e+01 3.6334912732e+01 0.0000000000e+00 0.0000e+00 1.0000e+00
       11  1    3    3    0    0 +1.7673803005e+01 +3.3668822600e+01 -5.7262258502e+01 6.8738047519e+01 0.0000000000e+00 0.0000e+00 -1.0000e+00
        5  1    4    4  501    0 -4.3948401332e+01 +7.0502804905e-01 +1.5479260039e+01 4.6836487225e+01 4.7000000000e+00 0.0000e+00 1.0000e+00
       -5  1    4    4    0  502 +1.2657880361e+01 +3.1689302326e-01 +2.1788083101e+01 2.5634603988e+01 4.7000000000e+00 0.0000e+00 -1.0000e+00
        5  1    4    4  502    0 +1.4662465418e+01 -2.2388795823e+01 +2.0706549170e+01 3.4162805053e+01 4.7000000000e+00 0.0000e+00 -1.0000e+00
       -5  1    4    4    0  501 -1.3094758938e+01 +1.7897923015e+01 -1.6929371172e+01 2.8293143483e+01 4.7000000000e+00 0.0000e+00 1.0000e+00
</event>
<event>
10      1 +4.6527485e-10 2.40000000e+02 7.81860800e-03 1.03012300e-01
      -11 -1    0    0    0    0 +0.0000000000e+00 +0.0000000000e+00 +1.2000000000e+02 1.2000000000e+02 0.0000000000e+00 0.0000e+00 -1.0000e+00
       11 -1    0    0    0    0 -0.0000000000e+00 -0.0000000000e+00 -1.2000000000e+02 1.2000000000e+02 0.0000000000e+00 0.0000e+00 1.0000e+00
       23  2    1    2    0    0 -3.3877143866e+01 -4.5805207051e+00 +3.9459267154e+01 1.0453033241e+02 9.0558901176e+01 0.0000e+00 0.0000e+00
       25  2    1    2    0    0 +3.3877143866e+01 +4.5805207051e+00 -3.9459267154e+01 1.3546966759e+02 1.2500541999e+02 0.0000e+00 0.0000e+00
      -11  1    3    3    0    0 -3.0998662001e+01 -2.6190986238e+01 +6.1400421381e+01 7.3599568964e+01 0.0000000000e+00 0.0000e+00 -1.0000e+00
       11  1    3    3    0    0 -2.8784818655e+00 +2.1610465532e+01 -2.1941154226e+01 3.0930763443e+01 0.0000000000e+00 0.0000e+00 1.0000e+00
        5  1    4    4  501    0 +2.1309880972e+00 -6.1939354005e+00 +2.9834609953e+00 8.5963355872e+00 4.7000000000e+00 0.0000e+00 -1.0000e+00
       -5  1    4    4    0  502 +5.3039862405e+01 +1.8578445915e+01 -6.3810060160e+01 8.5159846373e+01 4.7000000000e+00 0.0000e+00 -1.0000e+00
        5  1    4    4  502    0 +5.3780595838e-02 +7.4788761783e+00 +2.9976203877e+00 9.3280335136e+00 4.7000000000e+00 0.0000e+00 -1.0000e+00
       -5  1    4    4    0  501 -2.1347487232e+01 -1.5282865987e+01 +1.8369711623e+01 3.2385452120e+01 4.7000000000e+00 0.0000e+00 -1.0000e+00
</event>
<event>
10      1 +4.6527485e-10 2.40000000e+02 7.81860800e-03 1.03012300e-01
      -11 -1    0    0    0    0 +0.0000000000e+00 +0.0000000000e+00 +1.2000000000e+02 1.2000000000e+02 0.0000000000e+00 0.0000e+00 -1.0000e+00
       11 -1    0    0    0    0 -0.0000000000e+00 -0.0000000000e+00 -1.2000000000e+02 1.2000000000e+02 0.0000000000e+00 0.0000e+00 1.0000e+00
       23  2    1    2    0    0 +3.8369170868e+01 -3.1541088482e+01 -1.6360850571e+01 1.0450680954e+02 9.0481833936e+01 0.0000e+00 0.0000e+00
       25  2    1    2    0    0 -3.8369170868e+01 +3.1541088482e+01 +1.6360850571e+01 1.3549319046e+02 1.2499477467e+02 0.0000e+00 0.0000e+00
      -13  1    3    3    0    0 -2.6936716717e+01 -3.7863899262e+00 -1.9514984876e+01 3.3477725294e+01 0.0000000000e+00 0.0000e+00 -1.0000e+00
       13  1    3    3    0    0 +6.5305887585e+01 -2.7754698556e+01 +3.1541343051e+00 7.1029084243e+01 0.0000000000e+00 0.0000e+00 1.0000e+00
        5  1    4    4  501    0 +4.8814464378e+00 +2.1719827500e+00 +1.0014060057e+01 1.2284845429e+01 4.7000000000e+00 0.0000e+00 1.0000e+00
       -5  1    4    4    0  501 +3.5629291252e+01 +1.8484413029e-01 +5.1224046901e+00 3.6301647239e+01 4.7000000000e+00 0.0000e+00 1.0000e+00
        5  1    4    4  502    0 -6.2982181851e+01 +2.4177216512e+01 -6.5120491460e+00 6.7939604157e+01 4.7000000000e+00 0.0000e+00 -1.0000e+00
       -5  1    4    4    0  502 -1.5897726707e+01 +5.0070450900e+00 +7.7364349695e+00 1.8967093637e+01 4.7000000000e+00 0.0000e+00 -1.0000e+00
</event>
<event>
10      1 +4.6527485e-10 2.40000000e+02 7.81860800e-03 1.03012300e-01
      -11 -1    0    0    0    0 +0.0000000000e+00 +0.0000000000e+00 +1.2000000000e+02 1.2000000000e+02 0.0000000000e+00 0.0000e+00 -1.0000e+00
       11 -1    0    0    0    0 -0.0000000000e+00 -0.0000000000e+00 -1.2000000000e+02 1.2000000000e+02 0.0000000000e+00 0.0000e+00 1.0000e+00
       23  2    1    2    0    0 +1.3847536959e+01 +2.3075303559e+01 -1.2982104981e+01 1.1147812158e+02 1.0739931391e+02 0.0000e+00 0.0000e+00
       25  2    1    2    0    0 -1.3847536959e+01 -2.3075303559e+01 +1.2982104981e+01 1.2852187842e+02 1.2500045707e+02 0.0000e+00 0.0000e+00
      -11  1    3    3    0    0 -2.5392357854e+01 +4.6220261479e+00 -4.8820260239e+01 5.5222755934e+01 0.0000000000e+00 0.0000e+00 1.0000e+00
       11  1    3    3    0    0 +3.9239894813e+01 +1.8453277411e+01 +3.5838155258e+01 5.6255365651e+01 0.0000000000e+00 0.0000e+00 -1.0000e+00
        5  1    4    4  501    0 +2.1460952966e+01 -5.2224330981e+01 +1.8074567124e+00 5.6686066616e+01 4.7000000000e+00 0.0000e+00 1.0000e+00
       -5  1    4    4    0  502 -2.8779704092e+01 +2.6662549400e+01 -5.1987721841e+00 3.9853232496e+01 4.7000000000e+00 0.0000e+00 -1.0000e+00
        5  1    4    4  502    0 -7.2856393733e+00 +1.3045554216e+01 +7.3638400465e+00 1.7308470935e+01 4.7000000000e+00 0.0000e+00 -1.0000e+00
       -5  1    4    4    0  501 +7.5685354001e-01 -1.0559076193e+01 +9.0095804060e+00 1.4674108369e+01 4.7000000000e+00 0.0000e+00 1.0000e+00
</event>
<event>
10      1 +4.6527485e-10 2.40000000e+02 7.81860800e-03 1.03012300e-01
      -11 -1    0    0    0    0 +0.0000000000e+00 +0.0000000000e+00 +1.2000000000e+02 1.2000000000e+02 0.0000000000e+00 0.0000e+00 1.0000e+00
       11 -1    0    0    0    0 -0.0000000000e+00 -0.0000000000e+00 -1.2000000000e+02 1.2000000000e+02 0.0000000000e+00 0.0000e+00 -1.0000e+00
       23  2    1    2    0    0 -4.0001628844e+00 +4.9493995212e+01 -5.4751722225e+00 1.0538748651e+02 9.2794870212e+01 0.0000e+00 0.0000e+00
       25  2    1    2    0    0 +4.0001628844e+00 -4.9493995212e+01 +5.4751722225e+00 1.3461251349e+02 1.2499957764e+02 0.0000e+00 0.0000e+00
      -13  1    3    3    0    0 +2.2340697582e+01 +3.2024920471e+01 -4.1824075213e+01 5.7218489731e+01 0.0000000000e+00 0.0000e+00 -1.0000e+00
       13  1    3    3    0    0 -2.6340860466e+01 +1.7469074741e+01 +3.6348902991e+01 4.8168996783e+01 0.0000000000e+00 0.0000e+00 1.0000e+00
        5  1    4    4  501    0 +5.5856246932e+00 -9.9273866890e+00 -2.0055453900e+01 2.3538552225e+01 4.7000000000e+00 0.0000e+00 1.0000e+00
       -5  1    4    4    0  502 +1.2324800487e+01 -6.0021151908e+00 +7.9149435009e-01 1.4513530140e+01 4.7000000000e+00 0.0000e+00 -1.0000e+00
        5  1    4    4  502    0 -1.4009852961e+01 -3.7242240159e+01 +5.3694716413e+01 6.6996067069e+01 4.7000000000e+00 0.0000e+00 -1.0000e+00
       -5  1    4    4    0  501 +9.9590664423e-02 +3.6777468271e+00 -2.8955584640e+01 2.9564364053e+01 4.7000000000e+00 0.0000e+00 1.0000e+00
</event>
<event>
10      1 +4.6527485e-10 2.40000000e+02 7.81860800e-03 1.03012300e-01
      -11 -1    0    0    0    0 +0.0000000000e+00 +0.0000000000e+00 +1.2000000000e+02 1.2000000000e+02 0.0000000000e+00 0.0000e+00 1.0000e+00
       11 -1    0    0    0    0 -0.0000000000e+00 -0.0000000000e+00 -1.2000000000e+02 1.2000000000e+02 0.0000000000e+00 0.0000e+00 -1.0000e+00
       23  2    1    2    0    0 +9.1613677819e+00 +2.9995352526e+00 +5.3965103168e+01 1.0350936658e+02 8.7801074814e+01 0.0000e+00 0.0000e+00
       25  2    1    2    0    0 -9.1613677819e+00 -2.9995352526e+00 -5.3965103168e+01 1.3649063342e+02 1.2499813111e+02 0.0000e+00 0.0000e+00
      -13  1    3    3    0    0 +8.9761948727e+00 +2.4569304338e+01 -1.5750067858e+01 3.0533382184e+01 0.0000000000e+00 0.0000e+00 -1.0000e+00
       13  1    3    3    0    0 +1.8517290924e-01 -2.1569769086e+01 +6.9715171026e+01 7.2975984396e+01 0.0000000000e+00 0.0000e+00 1.0000e+00
        5  1    4    4  501    0 -2.4352557071e+01 +2.5369752333e+00 +2.9644899989e+01 3.8734911573e+01 4.7000000000e+00 0.0000e+00 1.0000e+00
       -5  1    4    4    0  502 +2.0943820534e+01 -6.9647864414e+00 -6.1965224817e+01 6.5946424887e+01 4.7000000000e+00 0.0000e+00 -1.0000e+00
        5  1    4    4  502    0 -3.8707925473e+00 +7.0427488327e+00 -2.2354912102e+01 2.4216016211e+01 4.7000000000e+00 0.0000e+00 -1.0000e+00
       -5  1    4    4    0  501 -1.8818386977e+00 -5.6144728773e+00 +7.1013376181e-01 7.5932807490e+00 4.7000000000e+00 0.0000e+00 -1.0000e+00
</event>
<event>
10      1 +4.6527485e-10 2.40000000e+02 7.81860800e-03 1.03012300e-01
      -11 -1    0    0    0    0 +0.0000000000e+00 +0.0000000000e+00 +1.2000000000e+02 1.2000000000e+02 0.0000000000e+00 0.0000e+00 -1.0000e+00
       11 -1    0    0    0    0 -0.0000000000e+00 -0.0000000000e+00 -1.2000000000e+02 1.2000000000e+02 0.0000000000e+00 0.0000e+00 1.0000e+00
       23  2    1    2    0    0 +2.5770577766e+00 +1.5801470587e+00 -5.0658574088e+01 1.0509208698e+02 9.2026721802e+01 0.0000e+00 0.0000e+00
       25  2    1    2    0    0 -2.5770577766e+00 -1.5801470587e+00 +5.0658574088e+01 1.3490791302e+02 1.2499886310e+02 0.0000e+00 0.0000e+00
      -11  1    3    3    0    0 -8.4250348668e+00 +4.0237506386e+01 -5.0215542096e+01 6.4897140158e+01 0.0000000000e+00 0.0000e+00 1.0000e+00
       11  1    3    3    0    0 +1.1002092643e+01 -3.8657359327e+01 -4.4303199196e-01 4.0194946822e+01 0.0000000000e+00 0.0000e+00 -1.0000e+00
        5  1    4    4  501    0 -4.8612987604e-01 +4.1261685432e+00 +5.0573968627e+00 8.0578441366e+00 4.7000000000e+00 0.0000e+00 1.0000e+00
       -5  1    4    4    0  501 -3.3679582274e+01 -2.3720102463e+01 +6.8351434164e+01 7.9943518032e+01 4.7000000000e+00 0.0000e+00 1.0000e+00
        5  1    4    4  502    0 +1.1385708121e+01 +1.5766983477e+01 -9.1466698935e+00 2.1999629258e+01 4.7000000000e+00 0.0000e+00 -1.0000e+00
       -5  1    4    4    0  502 +2.0202946253e+01 +2.2468033847e+00 -1.3603587045e+01 2.4906921593e+01 4.7000000000e+00 0.0000e+00 -1.0000e+00
</event>
<event>
10      1 +4.6527485e-10 2.40000000e+02 7.81860800e-03 1.03012300e-01
      -11 -1    0    0    0    0 +0.0000000000e+00 +0.0000000000e+00 +1.2000000000e+02 1.2000000000e+02 0.0000000000e+00 0.0000e+00 -1.0000e+00
       11 -1    0    0    0    0 -0.0000000000e+00 -0.0000000000e+00 -1.2000000000e+02 1.2000000000e+02 0.0000000000e+00 0.0000e+00 1.0000e+00
       23  2    1    2    0    0 -2.2206934510e+01 -4.6321917883e+01 +5.2083629719e-01 1.0485455827e+02 9.1407544011e+01 0.0000e+00 0.0000e+00
       25  2    1    2    0    0 +2.2206934510e+01 +4.6321917883e+01 -5.2083629719e-01 1.3514544173e+02 1.2500060454e+02 0.0000e+00 0.0000e+00
      -13  1    3    3    0    0 +1.3257191354e+00 -4.1362786430e+00 -4.0955924214e+01 4.1185605015e+01 0.0000000000e+00 0.0000e+00 1.0000e+00
       13  1    3    3    0    0 -2.3532653646e+01 -4.2185639239e+01 +4.1476760511e+01 6.3668953252e+01 0.0000000000e+00 0.0000e+00 -1.0000e+00
        5  1    4    4  501    0 +1.5080665504e+01 +3.0410647208e+01 -2.2683122340e+00 3.4343400764e+01 4.7000000000e+00 0.0000e+00 1.0000e+00
       -5  1    4    4    0  501 +4.7698392295e+01 +2.5854367887e+01 -2.6696727241e+00 5.4523408907e+01 4.7000000000e+00 0.0000e+00 1.0000e+00
        5  1    4    4  502    0 -2.5713414136e+01 -5.7278964671e+00 -5.5173900169e+00 2.7322519229e+01 4.7000000000e+00 0.0000e+00 -1.0000e+00
       -5  1    4    4    0  502 -1.4858709152e+01 -4.2152007458e+00 +9.9345386777e+00 1.8956112833e+01 4.7000000000e+00 0.0000e+00 -1.0000e+00
</event>
<event>
10      1 +4.6527485e-10 2.40000000e+02 7.81860800e-03 1.03012300e-01
      -11 -1    0    0    0    0 +0.0000000000e+00 +0.0000000000e+00 +1.2000000000e+02 1.2000000000e+02 0.0000000000e+00 0.0000e+00 1.0000e+00
       11 -1    0    0    0    0 -0.0000000000e+00 -0.0000000000e+00 -1.2000000000e+02 1.2000000000e+02 0.0000000000e+00 0.0000e+00 -1.0000e+00
       23  2    1    2    0    0 -9.5390099745e+00 -1.2208835007e+01 -5.0152523662e+01 1.0442699289e+02 9.0275538502e+01 0.0000e+00 0.0000e+00
       25  2    1    2    0    0 +9.5390099745e+00 +1.2208835007e+01 +5.0152523662e+01 1.3557300711e+02 1.2499886504e+02 0.0000e+00 0.0000e+00
      -13  1    3    3    0    0 +9.1934300218e+00 -1.6801607426e+01 -7.2453753264e+01 7.4942374727e+01 0.0000000000e+00 0.0000e+00 -1.0000e+00
       13  1    3    3    0    0 -1.8732439996e+01 +4.5927724193e+00 +2.2301229602e+01 2.9484618167e+01 0.0000000000e+00 0.0000e+00 1.0000e+00
        5  1    4    4  501    0 +8.7123499393e+00 -2.1252573756e+00 +1.0002704199e+01 1.4232563074e+01 4.7000000000e+00 0.0000e+00 1.0000e+00
       -5  1    4    4    0  501 +4.4270594261e+01 -2.5962009782e+01 +1.5626666868e+01 5.3853451009e+01 4.7000000000e+00 0.0000e+00 1.0000e+00
        5  1    4    4  502    0 -6.2591757931e+00 +8.9408009535e+00 +1.2325821951e+01 1.7121071522e+01 4.7000000000e+00 0.0000e+00 -1.0000e+00
       -5  1    4    4    0  502 -3.7184758433e+01 +3.1355301211e+01 +1.2197330644e+01 5.0365921500e+01 4.7000000000e+00 0.0000e+00 1.0000e+00
</event>
<event>
10      1 +4.6527485e-10 2.40000000e+02 7.81860800e-03 1.03012300e-01
      -11 -1    0    0    0    0 +0.0000000000e+00 +0.0000000000e+00 +1.2000000000e+02 1.2000000000e+02 0.0000000000e+00 0.0000e+00 1.0000e+00
       11 -1    0    0    0    0 -0.0000000000e+00 -0.0000000000e+00 -1.2000000000e+02 1.2000000000e+02 0.0000000000e+00 0.0000e+00 -1.0000e+00
       23  2    1    2    0    0 +3.0270801767e+01 +8.8164739968e+00 +3.9660675722e+01 1.0512082997e+02 9.2105200948e+01 0.0000e+00 0.0000e+00
       25  2    1    2    0    0 -3.0270801767e+01 -8.8164739968e+00 -3.9660675722e+01 1.3487917003e+02 1.2500147861e+02 0.0000e+00 0.0000e+00
      -11  1    3    3    0    0 -2.0384387955e+00 -1.6918201465e+01 +5.7614682718e+01 6.0081881114e+01 0.0000000000e+00 0.0000e+00 -1.0000e+00
       11  1    3    3    0    0 +3.2309240563e+01 +2.5734675462e+01 -1.7954006996e+01 4.5038948856e+01 0.0000000000e+00 0.0000e+00 1.0000e+00
        5  1    4    4  501    0 -1.4215724812e+01 +4.4273413022e+01 -4.0524018132e+01 6.1858774463e+01 4.7000000000e+00 0.0000e+00 -1.0000e+00
       -5  1    4    4    0  502 +3.8866659065e+00 -4.3153268235e+01 +2.9471039797e+00 4.3681645494e+01 4.7000000000e+00 0.0000e+00 1.0000e+00
        5  1    4    4  502    0 -2.0726467985e+01 -9.6108535809e+00 +1.4918539830e+00 2.3372432693e+01 4.7000000000e+00 0.0000e+00 1.0000e+00
       -5  1    4    4    0  501 +7.8472512325e-01 -3.2576520272e-01 -3.5756155531e+00 5.9663173792e+00 4.7000000000e+00 0.0000e+00 1.0000e+00
</event>
<event>
10      1 +4.6527485e-10 2.40000000e+02 7.81860800e-03 1.03012300e-01
      -11 -1    0    0    0    0 +0.0000000000e+00 +0.0000000000e+00 +1.2000000000e+02 1.2000000000e+02 0.0000000000e+00 0.0000e+00 1.0000e+00
       11 -1    0    0    0    0 -0.0000000000e+00 -0.0000000000e+00 -1.2000000000e+02 1.2000000000e+02 0.0000000000e+00 0.0000e+00 -1.0000e+00
       23  2    1    2    0    0 +1.9733752946e+01 -9.9416889675e+00 -4.7757478945e+01 1.0437515073e+02 9.0139542433e+01 0.0000e+00 0.0000e+00
       25  2    1    2    0    0 -1.9733752946e+01 +9.9416889675e+00 +4.7757478945e+01 1.3562484927e+02 1.2500025904e+02 0.0000e+00 0.0000e+00
      -11  1    3    3    0    0 -1.8443145933e+01 +3.1138341715e+01 -1.3313745636e+01 3.8561662043e+01 0.0000000000e+00 0.0000e+00 -1.0000e+00
       11  1    3    3    0    0 +3.8176898879e+01 -4.1080030683e+01 -3.4443733309e+01 6.5813488687e+01 0.0000000000e+00 0.0000e+00 1.0000e+00
        5  1    4    4  501    0 +8.4141977360e+00 +1.1629868461e+01 +3.2511266072e+01 3.5848639941e+01 4.7000000000e+00 0.0000e+00 -1.0000e+00
       -5  1    4    4    0  502 -2.6592352698e+01 -8.5606500362e+00 -1.8349130397e+01 3.3752311586e+01 4.7000000000e+00 0.0000e+00 -1.0000e+00
        5  1    4    4  502    0 -2.5575288097e+01 +3.0179948520e-01 +2.8204288737e+00 2.6157814572e+01 4.7000000000e+00 0.0000e+00 -1.0000e+00
       -5  1    4    4    0  501 +2.4019690113e+01 +6.5706710573e+00 +3.0774914396e+01 3.9866083171e+01 4.7000000000e+00 0.0000e+00 -1.0000e+00
</event>
<event>
10      1 +4.6527485e-10 2.40000000e+02 7.81860800e-03 1.03012300e-01
      -11 -1    0    0    0    0 +0.0000000000e+00 +0.0000000000e+00 +1.2000000000e+02 1.2000000000e+02 0.0000000000e+00 0.0000e+00 1.0000e+00
       11 -1    0    0    0    0 -0.0000000000e+00 -0.0000000000e+00 -1.2000000000e+02 1.2000000000e+02 0.0000000000e+00 0.0000e+00 -1.0000e+00
       23  2    1    2    0    0 +5.1047697706e+00 +2.8537415479e+01 +4.2926865112e+01 1.0469520905e+02 9.0983120919e+01 0.0000e+00 0.0000e+00
       25  2    1    2    0    0 -5.1047697706e+00 -2.8537415479e+01 -4.2926865112e+01 1.3530479095e+02 1.2499691176e+02 0.0000e+00 0.0000e+00
      -13  1    3    3    0    0 -7.0973671739e+00 +7.8740692665e+00 -2.7935842702e+01 2.9879506273e+01 0.0000000000e+00 0.0000e+00 -1.0000e+00
       13  1    3    3    0    0 +1.2202136945e+01 +2.0663346213e+01 +7.0862707814e+01 7.4815702773e+01 0.0000000000e+00 0.0000e+00 1.0000e+00
        5  1    4    4  501    0 +9.0297279680e+00 +2.0019422176e+01 -4.6709896262e+00 2.2939516026e+01 4.7000000000e+00 0.0000e+00 1.0000e+00
       -5  1    4    4    0  501 +1.3428668498e+00 +2.3848068980e+01 -2.3851763764e+01 3.4081231200e+01 4.7000000000e+00 0.0000e+00 1.0000e+00
        5  1    4    4  502    0 -1.1465474866e+01 -2.2676964254e+01 +9.9524588542e-01 2.5860826283e+01 4.7000000000e+00 0.0000e+00 1.0000e+00
       -5  1    4    4    0  502 -4.0118897226e+00 -4.9727942381e+01 -1.5399357607e+01 5.2423217446e+01 4.7000000000e+00 0.0000e+00 1.0000e+00
</event>
<event>
10      1 +4.6527485e-10 2.40000000e+02 7.81860800e-03 1.03012300e-01
      -11 -1    0    0    0    0 +0.0000000000e+00 +0.0000000000e+00 +1.2000000000e+02 1.2000000000e+02 0.0000000000e+00 0.0000e+00 -1.0000e+00
       11 -1    0    0    0    0 -0.0000000000e+00 -0.0000000000e+00 -1.2000000000e+02 1.2000000000e+02 0.0000000000e+00 0.0000e+00 1.0000e+00
       23  2    1    2    0    0 -2.8457370922e+01 +3.6659453194e+01 +1.4163922056e+01 1.0591275403e+02 9.4144342953e+01 0.0000e+00 0.0000e+00
       25  2    1    2    0    0 +2.8457370922e+01 -3.6659453194e+01 -1.4163922056e+01 1.3408724597e+02 1.2500014150e+02 0.0000e+00 0.0000e+00
      -13  1    3    3    0    0 +6.9232621171e-01 -3.1137271900e+01 +3.2906126686e+00 3.1318319698e+01 0.0000000000e+00 0.0000e+00 -1.0000e+00
       13  1    3    3    0    0 -2.9149697133e+01 +6.7796725094e+01 +1.0873309388e+01 7.4594434333e+01 0.0000000000e+00 0.0000e+00 1.0000e+00
        5  1    4    4  501    0 +6.9974499397e+00 -5.3659971472e+00 +1.4871536819e+01 1.7916775335e+01 4.7000000000e+00 0.0000e+00 -1.0000e+00
       -5  1    4    4    0  501 +1.4191979046e+01 +1.5613896906e+01 +3.0729647425e+01 3.7571362454e+01 4.7000000000e+00 0.0000e+00 -1.0000e+00
        5  1    4    4  502    0 +1.1936848355e+01 -2.4741250887e+01 -3.4278180609e+01 4.4178065938e+01 4.7000000000e+00 0.0000e+00 -1.0000e+00
       -5  1    4    4    0  502 -4.6689064196e+00 -2.2166102065e+01 -2.5486925691e+01 3.4421042243e+01 4.7000000000e+00 0.0000e+00 -1.0000e+00
</event>
<event>
10      1 +4.6527485e-10 2.40000000e+02 7.81860800e-03 1.03012300e-01
      -11 -1    0    0    0    0 +0.0000000000e+00 +0.0000000000e+00 +1.2000000000e+02 1.2000000000e+02 0.0000000000e+00 0.0000e+00 -1.0000e+00
       11 -1    0    0    0    0 -0.0000000000e+00 -0.0000000000e+00 -1.2000000000e+02 1.2000000000e+02 0.0000000000e+00 0.0000e+00 1.0000e+00
       23  2    1    2    0    0 -2.6524042116e+01 -4.0650138268e+01 -1.5100473850e+01 1.0506104705e+02 9.1944770082e+01 0.0000e+00 0.0000e+00
       25  2    1    2    0    0 +2.6524042116e+01 +4.0650138268e+01 +1.5100473850e+01 1.3493895295e+02 1.2499815263e+02 0.0000e+00 0.0000e+00
      -11  1    3    3    0    0 -3.7630455982e+01 +6.8808287507e+00 -3.5471718635e+01 5.2169338165e+01 0.0000000000e+00 0.0000e+00 1.0000e+00
       11  1    3    3    0    0 +1.1106413866e+01 -4.7530967019e+01 +2.0371244785e+01 5.2891708885e+01 0.0000000000e+00 0.0000e+00 -1.0000e+00
        5  1    4    4  501    0 +2.2887896606e+01 +5.0330570588e+01 +2.7843142445e+01 6.2083433603e+01 4.7000000000e+00 0.0000e+00 -1.0000e+00
       -5  1    4    4    0  501 +1.2332284010e+01 +1.2488897418e+01 +1.8364485090e+01 2.5834126660e+01 4.7000000000e+00 0.0000e+00 -1.0000e+00
        5  1    4    4  502    0 +5.1329569480e+00 +5.5894445072e-02 -1.3313046414e+01 1.5022568890e+01 4.7000000000e+00 0.0000e+00 1.0000e+00
       -5  1    4    4    0  502 -1.3829095448e+01 -2.2225224183e+01 -1.7794107270e+01 3.1998823798e+01 4.7000000000e+00 0.0000e+00 1.0000e+00
</event>
<event>
10      1 +4.6527485e-10 2.40000000e+02 7.81860800e-03 1.03012300e-01
      -11 -1    0    0    0    0 +0.0000000000e+00 +0.0000000000e+00 +1.2000000000e+02 1.2000000000e+02 0.0000000000e+00 0.0000e+00 1.0000e+00
       11 -1    0    0    0    0 -0.0000000000e+00 -0.0000000000e+00 -1.2000000000e+02 1.2000000000e+02 0.0000000000e+00 0.0000e+00 -1.0000e+00
       23  2    1    2    0    0 +1.7567153475e+01 +3.8972090257e+01 +3.4933515571e+01 1.0335064854e+02 8.7370345899e+01 0.0000e+00 0.0000e+00
       25  2    1    2    0    0 -1.7567153475e+01 -3.8972090257e+01 -3.4933515571e+01 1.3664935146e+02 1.2500106418e+02 0.0000e+00 0.0000e+00
      -11  1    3    3    0    0 -2.7407334156e+01 -1.0778299404e+01 +1.6676577784e+01 3.3844378413e+01 0.0000000000e+00 0.0000e+00 1.0000e+00
       11  1    3    3    0    0 +4.4974487631e+01 +4.9750389661e+01 +1.8256937786e+01 6.9506270123e+01 0.0000000000e+00 0.0000e+00 -1.0000e+00
        5  1    4    4  501    0 +7.2395580811e-01 +2.9850012572e-01 +4.1363466094e+00 6.3097208821e+00 4.7000000000e+00 0.0000e+00 -1.0000e+00
       -5  1    4    4    0  502 -2.2245162650e+01 +4.1259102549e+00 -3.4350035821e+01 4.1399098512e+01 4.7000000000e+00 0.0000e+00 -1.0000e+00
        5  1    4    4  502    0 -1.2761466798e+01 -9.6073184459e+00 -3.6042783001e+01 3.9702994963e+01 4.7000000000e+00 0.0000e+00 -1.0000e+00
       -5  1    4    4    0  501 +1.6715520165e+01 -3.3789182192e+01 +3.1322956642e+01 4.9237537107e+01 4.7000000000e+00 0.0000e+00 -1.0000e+00
</event>
<event>
10      1 +4.6527485e-10 2.40000000e+02 7.81860800e-03 1.03012300e-01
      -11 -1    0    0    0    0 +0.0000000000e+00 +0.0000000000e+00 +1.2000000000e+02 1.2000000000e+02 0.0000000000e+00 0.0000e+00 -1.0000e+00
       11 -1    0    0    0    0 -0.0000000000e+00 -0.0000000000e+00 -1.2000000000e+02 1.2000000000e+02 0.0000000000e+00 0.0000e+00 1.0000e+00
       23  2    1    2    0    0 +1.7257060149e+00 +1.7287563508e+01 -4.7416599746e+01 1.0519250145e+02 9.2278331787e+01 0.0000e+00 0.0000e+00
       25  2    1    2    0    0 -1.7257060149e+00 -1.7287563508e+01 +4.7416599746e+01 1.3480749855e+02 1.2499155899e+02 0.0000e+00 0.0000e+00
      -11  1    3    3    0    0 +5.0473695848e+00 -3.6460403988e+00 -7.2264713960e+01 7.2532464690e+01 0.0000000000e+00 0.0000e+00 1.0000e+00
       11  1    3    3    0    0 -3.3216635699e+00 +2.0933603907e+01 +2.4848114214e+01 3.2660036763e+01 0.0000000000e+00 0.0000e+00 -1.0000e+00
        5  1    4    4  501    0 -5.3787649046e+01 +3.3889432367e+00 +2.8298657071e+01 6.1053256409e+01 4.7000000000e+00 0.0000e+00 -1.0000e+00
       -5  1    4    4    0  502 +1.9491504384e+01 -7.7108608238e+00 +1.6534589885e+01 2.7108278818e+01 4.7000000000e+00 0.0000e+00 -1.0000e+00
        5  1    4    4  502    0 +3.6089818138e+01 -1.6145665594e+01 +3.1796293213e+00 3.9941927011e+01 4.7000000000e+00 0.0000e+00 -1.0000e+00
       -5  1    4    4    0  501 -3.5193794907e+00 +3.1800196738e+00 -5.9627653158e-01 6.7040363086e+00 4.7000000000e+00 0.0000e+00 -1.0000e+00
</event>
<event>
10      1 +4.6527485e-10 2.40000000e+02 7.81860800e-03 1.03012300e-01
      -11 -1    0    0    0    0 +0.0000000000e+00 +0.0000000000e+00 +1.2000000000e+02 1.2000000000e+02 0.0000000000e+00 0.0000e+00 1.0000e+00
       11 -1    0    0    0    0 -0.0000000000e+00 -0.0000000000e+00 -1.2000000000e+02 1.2000000000e+02 0.0000000000e+00 0.0000e+00 -1.0000e+00
       23  2    1    2    0    0 -3.1362221202e+01 +3.5446457331e+01 -2.1210304225e+01 1.0466846990e+02 9.0915187561e+01 0.0000e+00 0.0000e+00
       25  2    1    2    0    0 +3.1362221202e+01 -3.5446457331e+01 +2.1210304225e+01 1.3533153010e+02 1.2499882311e+02 0.0000e+00 0.0000e+00
      -13  1    3    3    0    0 -4.3293338243e+01 +5.0930187789e+01 +1.0254116348e+01 6.7626504172e+01 0.0000000000e+00 0.0000e+00 1.0000e+00
       13  1    3    3    0    0 +1.1931117041e+01 -1.5483730459e+01 -3.1464420573e+01 3.7041965725e+01 0.0000000000e+00 0.0000e+00 -1.0000e+00
        5  1    4    4  501    0 -2.5261284826e+01 -1.1774892164e+00 +2.8500979653e+01 3.8391598470e+01 4.7000000000e+00 0.0000e+00 1.0000e+00
       -5  1    4    4    0  501 +3.7984188188e-02 -5.5204733896e+00 +2.2451099776e+01 2.3592773266e+01 4.7000000000e+00 0.0000e+00 1.0000e+00
        5  1    4    4  502    0 +5.5380484724e+01 -2.7547581002e+01 -2.7094577353e+01 6.7691014391e+01 4.7000000000e+00 0.0000e+00 -1.0000e+00
       -5  1    4    4    0  502 +1.2050371162e+00 -1.2009137230e+00 -2.6471978502e+00 5.6561439762e+00 4.7000000000e+00 0.0000e+00 1.0000e+00
</event>
<event>
10      1 +4.6527485e-10 2.40000000e+02 7.81860800e-03 1.03012300e-01
      -11 -1    0    0    0    0 +0.0000000000e+00 +0.0000000000e+00 +1.2000000000e+02 1.2000000000e+02 0.0000000000e+00 0.0000e+00 -1.0000e+00
       11 -1    0    0    0    0 -0.0000000000e+00 -0.0000000000e+00 -1.2000000000e+02 1.2000000000e+02 0.0000000000e+00 0.0000e+00 1.0000e+00
       23  2    1    2    0    0 +2.2992440605e+01 -3.8178185121e+01 -2.4232710203e+01 1.0509871638e+02 9.2045042222e+01 0.0000e+00 0.0000e+00
       25  2    1    2    0    0 -2.2992440605e+01 +3.8178185121e+01 +2.4232710203e+01 1.3490128362e+02 1.2499962373e+02 0.0000e+00 0.0000e+00
      -11  1    3    3    0    0 +3.8012615003e+01 +1.0816760815e+00 -4.4414155005e+01 5.8470044359e+01 0.0000000000e+00 0.0000e+00 1.0000e+00
       11  1    3    3    0    0 -1.5020174399e+01 -3.9259861202e+01 +2.0181444801e+01 4.6628672025e+01 0.0000000000e+00 0.0000e+00 -1.0000e+00
        5  1    4    4  501    0 -3.8376311010e+01 +1.4451960086e+01 -8.3073549757e+00 4.2103474248e+01 4.7000000000e+00 0.0000e+00 -1.0000e+00
       -5  1    4    4    0  501 -1.9607442959e+01 +2.1931339437e+01 -1.2572132604e+01 3.2335491138e+01 4.7000000000e+00 0.0000e+00 -1.0000e+00
        5  1    4    4  502    0 +1.5919834957e+00 -2.1952102140e+00 +1.1311159816e+01 1.2545345579e+01 4.7000000000e+00 0.0000e+00 -1.0000e+00
       -5  1    4    4    0  502 +3.3399329869e+01 +3.9900958121e+00 +3.3801037968e+01 4.7916972651e+01 4.7000000000e+00 0.0000e+00 -1.0000e+00
</event>
<event>
10      1 +4.6527485e-10 2.40000000e+02 7.81860800e-03 1.03012300e-01
      -11 -1    0    0    0    0 +0.0000000000e+00 +0.0000000000e+00 +1.2000000000e+02 1.2000000000e+02 0.0000000000e+00 0.0000e+00 -1.0000e+00
       11 -1    0    0    0    0 -0.0000000000e+00 -0.0000000000e+00 -1.2000000000e+02 1.2000000000e+02 0.0000000000e+00 0.0000e+00 1.0000e+00
       23  2    1    2    0    0 -2.7119031210e+01 +3.2190826843e+01 -2.0520697978e+01 1.0650443823e+02 9.5657749978e+01 0.0000e+00 0.0000e+00
       25  2    1    2    0    0 +2.7119031210e+01 -3.2190826843e+01 +2.0520697978e+01 1.3349556177e+02 1.2501309843e+02 0.0000e+00 0.0000e+00
      -11  1    3    3    0    0 -4.6660865208e+01 -1.8345965761e+01 -6.6784388253e+00 5.0580750753e+01 0.0000000000e+00 0.0000e+00 1.0000e+00
       11  1    3    3    0    0 +1.9541833998e+01 +5.0536792604e+01 -1.3842259153e+01 5.5923687478e+01 0.0000000000e+00 0.0000e+00 -1.0000e+00
        5  1    4    4  501    0 +6.4192195184e+01 -4.5092127710e+01 +1.1523531120e+01 7.9428078621e+01 4.7000000000e+00 0.0000e+00 1.0000e+00
       -5  1    4    4    0  502 -2.9604788443e+01 +1.0267324480e+01 +1.2577585990e-01 3.1685442561e+01 4.7000000000e+00 0.0000e+00 1.0000e+00
        5  1    4    4  502    0 -4.5880950560e+00 -3.4949774541e+00 -2.9220115107e+00 7.9933494179e+00 4.7000000000e+00 0.0000e+00 1.0000e+00
       -5  1    4    4    0  501 -2.8802804753e+00 +6.1289538399e+00 +1.1793402509e+01 1.4388691168e+01 4.7000000000e+00 0.0000e+00 1.0000e+00
</event>
<event>
10      1 +4.6527485e-10 2.40000000e+02 7.81860800e-03 1.03012300e-01
      -11 -1    0    0    0    0 +0.0000000000e+00 +0.0000000000e+00 +1.2000000000e+02 1.2000000000e+02 0.0000000000e+00 0.0000e+00 -1.0000e+00
       11 -1    0    0    0    0 -0.0000000000e+00 -0.0000000000e+00 -1.2000000000e+02 1.2000000000e+02 0.0000000000e+00 0.0000e+00 1.0000e+00
       23  2    1    2    0    0 -4.3564549895e+01 +2.5420206537e+01 +7.0792253728e+00 1.0502056846e+02 9.1843058852e+01 0.0000e+00 0.0000e+00
       25  2    1    2    0    0 +4.3564549895e+01 -2.5420206537e+01 -7.0792253728e+00 1.3497943154e+02 1.2500109839e+02 0.0000e+00 0.0000e+00
      -13  1    3    3    0    0 -2.2851465751e+01 -3.4471116609e+01 +1.1759264937e+00 4.1374269424e+01 0.0000000000e+00 0.0000e+00 1.0000e+00
       13  1    3    3    0    0 -2.0713084144e+01 +5.9891323146e+01 +5.9032988791e+00 6.3646299033e+01 0.0000000000e+00 0.0000e+00 -1.0000e+00
        5  1    4    4  501    0 +1.5549839043e+01 +6.4266625039e+00 +1.1276413202e+01 2.0792955054e+01 4.7000000000e+00 0.0000e+00 1.0000e+00
       -5  1    4    4    0  502 +1.7756389436e+01 -4.3246666722e+01 -1.7453339011e+01 5.0122575662e+01 4.7000000000e+00 0.0000e+00 1.0000e+00
        5  1    4    4  502    0 -6.9911539061e+00 -1.8022703732e+01 -1.6896865196e+01 2.6101496819e+01 4.7000000000e+00 0.0000e+00 1.0000e+00
       -5  1    4    4    0  501 +1.7249475323e+01 +2.9422501413e+01 +1.5994565632e+01 3.7962404008e+01 4.7000000000e+00 0.0000e+00 1.0000e+00
</event>
<event>
10      1 +4.6527485e-10 2.40000000e+02 7.81860800e-03 1.03012300e-01
      -11 -1    0    0    0    0 +0.0000000000e+00 +0.0000000000e+00 +1.2000000000e+02 1.2000000000e+02 0.0000000000e+00 0.0000e+00 1.0000e+00
       11 -1    0    0    0    0 -0.0000000000e+00 -0.0000000000e+00 -1.2000000000e+02 1.2000000000e+02 0.0000000000e+00 0.0000e+00 -1.0000e+00
       23  2    1    2    0    0 -3.8270574294e+01 +3.3223951422e+01 +7.5159996401e+00 1.0490363326e+02 9.1541325176e+01 0.0000e+00 0.0000e+00
       25  2    1    2    0    0 +3.8270574294e+01 -3.3223951422e+01 -7.5159996401e+00 1.3509636674e+02 1.2500428093e+02 0.0000e+00 0.0000e+00
      -11  1    3    3    0    0 +1.9797903125e+01 +1.6308672510e+00 +2.9213248292e+01 3.5327476161e+01 0.0000000000e+00 0.0000e+00 1.0000e+00
       11  1    3    3    0    0 -5.8068477419e+01 +3.1593084171e+01 -2.1697248652e+01 6.9576157096e+01 0.0000000000e+00 0.0000e+00 -1.0000e+00
        5  1    4    4  501    0 +6.6355588486e+00 +3.0960215323e+01 +9.0037920555e+00 3.3252426159e+01 4.7000000000e+00 0.0000e+00 -1.0000e+00
       -5  1    4    4    0  502 +5.2460408423e+00 -3.6857608903e+01 -1.5661474727e+01 4.0661727327e+01 4.7000000000e+00 0.0000e+00 1.0000e+00
        5  1    4    4  502    0 +1.3117136210e+00 -6.2939773855e+00 -2.1003906437e+01 2.2463054769e+01 4.7000000000e+00 0.0000e+00 1.0000e+00
       -5  1    4    4    0  501 +2.5077260983e+01 -2.1032580456e+01 +2.0145589468e+01 3.8719158489e+01 4.7000000000e+00 0.0000e+00 -1.0000e+00
</event>
<event>
10      1 +4.6527485e-10 2.40000000e+02 7.81860800e-03 1.03012300e-01
      -11 -1    0    0    0    0 +0.0000000000e+00 +0.0000000000e+00 +1.2000000000e+02 1.2000000000e+02 0.0000000000e+00 0.0000e+00 1.0000e+00
       11 -1    0    0    0    0 -0.0000000000e+00 -0.0000000000e+00 -1.2000000000e+02 1.2000000000e+02 0.0000000000e+00 0.0000e+00 -1.0000e+00
       23  2    1    2    0    0 -5.0898155268e+00 -4.3745375929e+01 +2.1456685157e+01 1.0574185967e+02 9.3709057255e+01 0.0000e+00 0.0000e+00
       25  2    1    2    0    0 +5.0898155268e+00 +4.3745375929e+01 -2.1456685157e+01 1.3425814033e+02 1.2500117907e+02 0.0000e+00 0.0000e+00
      -11  1    3    3    0    0 +3.7491515589e+01 +5.1520459056e+00 +1.4515364314e+01 4.0532124535e+01 0.0000000000e+00 0.0000e+00 1.0000e+00
       11  1    3    3    0    0 -4.2581331115e+01 -4.8897421835e+01 +6.9413208434e+00 6.5209735137e+01 0.0000000000e+00 0.0000e+00 -1.0000e+00
        5  1    4    4  501    0 -2.7755559815e+01 +4.5238306964e+01 -3.8080350554e+01 6.5491057527e+01 4.7000000000e+00 0.0000e+00 -1.0000e+00
       -5  1    4    4    0  502 +3.8650001819e+00 -8.9160824094e+00 -3.7267786886e+00 1.1419878779e+01 4.7000000000e+00 0.0000e+00 -1.0000e+00
        5  1    4    4  502    0 +3.4198400311e+01 -6.1198503437e+00 +2.2907725009e+01 4.1878837343e+01 4.7000000000e+00 0.0000e+00 -1.0000e+00
       -5  1    4    4    0  501 -5.2180251517e+00 +1.3543001718e+01 -2.5572809236e+00 1.5468366679e+01 4.7000000000e+00 0.0000e+00 1.0000e+00
</event>
<event>
10      1 +4.6527485e-10 2.40000000e+02 7.81860800e-03 1.03012300e-01
      -11 -1    0    0    0    0 +0.0000000000e+00 +0.0000000000e+00 +1.2000000000e+02 1.2000000000e+02 0.0000000000e+00 0.0000e+00 -1.0000e+00
       11 -1    0    0    0    0 -0.0000000000e+00 -0.0000000000e+00 -1.2000000000e+02 1.2000000000e+02 0.0000000000e+00 0.0000e+00 1.0000e+00
       23  2    1    2    0    0 +2.1503836603e+01 +2.0941856721e+01 +3.2187654056e+01 1.0747895310e+02 9.8054596701e+01 0.0000e+00 0.0000e+00
       25  2    1    2    0    0 -2.1503836603e+01 -2.0941856721e+01 -3.2187654056e+01 1.3252104690e+02 1.2499922578e+02 0.0000e+00 0.0000e+00
      -13  1    3    3    0    0 +3.2197008983e+01 +5.5077999559e+01 +8.0018204210e+00 6.4298231336e+01 0.0000000000e+00 0.0000e+00 1.0000e+00
       13  1    3    3    0    0 -1.0693172380e+01 -3.4136142838e+01 +2.4185833635e+01 4.3180721764e+01 0.0000000000e+00 0.0000e+00 -1.0000e+00
        5  1    4    4  501    0 -1.2692677259e+00 -6.6216512018e-01 +3.4905897728e+00 6.0269163067e+00 4.7000000000e+00 0.0000e+00 -1.0000e+00
       -5  1    4    4    0  501 +1.3639158669e+01 -5.0141823717e+01 +1.5638824980e+01 5.4469183779e+01 4.7000000000e+00 0.0000e+00 -1.0000e+00
        5  1    4    4  502    0 -2.2628541116e+01 +2.9300552403e+01 -4.4398439514e+01 5.7999005814e+01 4.7000000000e+00 0.0000e+00 1.0000e+00
       -5  1    4    4    0  502 -1.1245186430e+01 +5.6157971314e-01 -6.9186292941e+00 1.4025941000e+01 4.7000000000e+00 0.0000e+00 1.0000e+00
</event>
<event>
10      1 +4.6527485e-10 2.40000000e+02 7.81860800e-03 1.03012300e-01
      -11 -1    0    0    0    0 +0.0000000000e+00 +0.0000000000e+00 +1.2000000000e+02 1.2000000000e+02 0.0000000000e+00 0.0000e+00 1.0000e+00
       11 -1    0    0    0    0 -0.0000000000e+00 -0.0000000000e+00 -1.2000000000e+02 1.2000000000e+02 0.0000000000e+00 0.0000e+00 -1.0000e+00
       23  2    1    2    0    0 +7.3799878003e+00 -4.9955914881e+01 +5.5235725844e+00 1.0507157676e+02 9.1975370270e+01 0.0000e+00 0.0000e+00
       25  2    1    2    0    0 -7.3799878003e+00 +4.9955914881e+01 -5.5235725844e+00 1.3492842324e+02 1.2500044757e+02 0.0000e+00 0.0000e+00
      -11  1    3    3    0    0 -8.1250773378e+00 -3.2870026340e+01 +4.6812032495e+01 5.7773885967e+01 0.0000000000e+00 0.0000e+00 1.0000e+00
       11  1    3    3    0    0 +1.5505065138e+01 -1.7085888541e+01 -4.1288459911e+01 4.7297690789e+01 0.0000000000e+00 0.0000e+00 -1.0000e+00
        5  1    4    4  501    0 -2.6186116224e-01 +1.7261595739e+00 -1.2389927811e+01 1.3365945882e+01 4.7000000000e+00 0.0000e+00 -1.0000e+00
       -5  1    4    4    0  502 -2.0250874200e+01 +3.7079336748e+01 +2.2321330012e+01 4.8013611539e+01 4.7000000000e+00 0.0000e+00 -1.0000e+00
        5  1    4    4  502    0 -1.4260947841e+01 +8.8911038499e+00 +2.1221779083e+01 2.7475084503e+01 4.7000000000e+00 0.0000e+00 -1.0000e+00
       -5  1    4    4    0  501 +2.7393695403e+01 +2.2593147090e+00 -3.6676753868e+01 4.6073781320e+01 4.7000000000e+00 0.0000e+00 -1.0000e+00
</event>
<event>
10      1 +4.6527485e-10 2.40000000e+02 7.81860800e-03 1.03012300e-01
      -11 -1    0    0    0    0 +0.0000000000e+00 +0.0000000000e+00 +1.2000000000e+02 1.2000000000e+02 0.0000000000e+00 0.0000e+00 -1.0000e+00
       11 -1    0    0    0    0 -0.0000000000e+00 -0.0000000000e+00 -1.2000000000e+02 1.2000000000e+02 0.0000000000e+00 0.0000e+00 1.0000e+00
       23  2    1    2    0    0 -1.5064746041e+01 +2.5495178389e+01 +1.1612802319e+01 1.1101131004e+02 1.0635649056e+02 0.0000e+00 0.0000e+00
       25  2    1    2    0    0 +1.5064746041e+01 -2.5495178389e+01 -1.1612802319e+01 1.2898868996e+02 1.2500509696e+02 0.0000e+00 0.0000e+00
      -13  1    3    3    0    0 +2.4539960619e+01 +5.4786510684e+01 +1.4184876726e+01 6.1684537348e+01 0.0000000000e+00 0.0000e+00 -1.0000e+00
       13  1    3    3    0    0 -3.9604706659e+01 -2.9291332295e+01 -2.5720744071e+00 4.9326772689e+01 0.0000000000e+00 0.0000e+00 1.0000e+00
        5  1    4    4  501    0 +3.0727974865e+00 -1.5304888486e+01 -9.4213739791e-01 1.6329706637e+01 4.7000000000e+00 0.0000e+00 1.0000e+00
       -5  1    4    4    0  501 -8.3148648448e+00 -4.5062338667e+01 -3.2691683128e+01 5.6485285600e+01 4.7000000000e+00 0.0000e+00 1.0000e+00
        5  1    4    4  502    0 -7.8122947602e+00 +1.0341724825e+01 +3.3676759417e+00 1.4192056335e+01 4.7000000000e+00 0.0000e+00 -1.0000e+00
       -5  1    4    4    0  502 +2.8119108159e+01 +2.4530323939e+01 +1.8653342265e+01 4.1981641391e+01 4.7000000000e+00 0.0000e+00 -1.0000e+00
</event>
<event>
10      1 +4.6527485e-10 2.40000000e+02 7.81860800e-03 1.03012300e-01
      -11 -1    0    0    0    0 +0.0000000000e+00 +0.0000000000e+00 +1.2000000000e+02 1.2000000000e+02 0.0000000000e+00 0.0000e+00 1.0000e+00
       11 -1    0    0    0    0 -0.0000000000e+00 -0.0000000000e+00 -1.2000000000e+02 1.2000000000e+02 0.0000000000e+00 0.0000e+00 -1.0000e+00
       23  2    1    2    0    0 +3.8712071353e+01 -3.2436527630e+01 -7.7737166894e+00 1.0495790210e+02 9.1678665724e+01 0.0000e+00 0.0000e+00
       25  2    1    2    0    0 -3.8712071353e+01 +3.2436527630e+01 +7.7737166894e+00 1.3504209790e+02 1.2500073896e+02 0.0000e+00 0.0000e+00
      -13  1    3    3    0    0 -2.3244207341e+01 +1.2979403498e+01 -9.0778028499e+00 2.8127648225e+01 0.0000000000e+00 0.0000e+00 -1.0000e+00
       13  1    3    3    0    0 +6.1956278694e+01 -4.5415931128e+01 +1.3040861606e+00 7.6830253875e+01 0.0000000000e+00 0.0000e+00 1.0000e+00
        5  1    4    4  501    0 -3.4649621432e+01 +1.4238843787e+01 -2.6617631035e+00 3.7848592055e+01 4.7000000000e+00 0.0000e+00 -1.0000e+00
       -5  1    4    4    0  502 +1.3207806369e+01 -2.3030584233e+00 +3.7943593295e+01 4.0516126410e+01 4.7000000000e+00 0.0000e+00 1.0000e+00
        5  1    4    4  502    0 -4.1328503318e+00 -9.7990956460e-02 +9.9229074403e+00 1.1732184203e+01 4.7000000000e+00 0.0000e+00 -1.0000e+00
       -5  1    4    4    0  501 -1.3137405959e+01 +2.0598733223e+01 -3.7431020942e+01 4.4945195232e+01 4.7000000000e+00 0.0000e+00 -1.0000e+00
</event>
<event>
10      1 +4.6527485e-10 2.40000000e+02 7.81860800e-03 1.03012300e-01
      -11 -1    0    0    0    0 +0.0000000000e+00 +0.0000000000e+00 +1.2000000000e+02 1.2000000000e+02 0.0000000000e+00 0.0000e+00 -1.0000e+00
       11 -1    0    0    0    0 -0.0000000000e+00 -0.0000000000e+00 -1.2000000000e+02 1.2000000000e+02 0.0000000000e+00 0.0000e+00 1.0000e+00
       23  2    1    2    0    0 -5.6092555255e+00 -2.2117728221e+00 -5.1403950578e+01 1.0471921451e+02 9.1035114464e+01 0.0000e+00 0.0000e+00
       25  2    1    2    0    0 +5.6092555255e+00 +2.2117728221e+00 +5.1403950578e+01 1.3528078549e+02 1.2498867589e+02 0.0000e+00 0.0000e+00
      -13  1    3    3    0    0 -1.6582206745e+01 -9.0996973391e+00 -7.5244677833e+01 7.7585666294e+01 0.0000000000e+00 0.0000e+00 1.0000e+00
       13  1    3    3    0    0 +1.0972951219e+01 +6.8879245170e+00 +2.3840727254e+01 2.7133548213e+01 0.0000000000e+00 0.0000e+00 -1.0000e+00
        5  1    4    4  501    0 +5.8193912077e+00 -4.6351141748e+00 +3.4896436132e+00 9.4666366777e+00 4.7000000000e+00 0.0000e+00 1.0000e+00
       -5  1    4    4    0  502 -3.9038771409e+01 -8.8829365055e-01 +1.7701610149e+01 4.3130635754e+01 4.7000000000e+00 0.0000e+00 1.0000e+00
        5  1    4    4  502    0 -1.4542152638e+01 +3.5115956753e+00 +2.3879735953e+01 2.8568116786e+01 4.7000000000e+00 0.0000e+00 1.0000e+00
       -5  1    4    4    0  501 +5.3370788364e+01 +4.2235849722e+00 +6.3329608638e+00 5.4115396274e+01 4.7000000000e+00 0.0000e+00 1.0000e+00
</event>
<event>
10      1 +4.6527485e-10 2.40000000e+02 7.81860800e-03 1.03012300e-01
      -11 -1    0    0    0    0 +0.0000000000e+00 +0.0000000000e+00 +1.2000000000e+02 1.2000000000e+02 0.0000000000e+00 0.0000e+00 -1.0000e+00
       11 -1    0    0    0    0 -0.0000000000e+00 -0.0000000000e+00 -1.2000000000e+02 1.2000000000e+02 0.0000000000e+00 0.0000e+00 1.0000e+00
       23  2    1    2    0    0 +1.0854583269e+01 +4.6080660742e+01 +2.0571141266e+01 1.0476267819e+02 9.1163576154e+01 0.0000e+00 0.0000e+00
       25  2    1    2    0    0 -1.0854583269e+01 -4.6080660742e+01 -2.0571141266e+01 1.3523732181e+02 1.2499884833e+02 0.0000e+00 0.0000e+00
      -13  1    3    3    0    0 -3.3192699658e+01 -6.8111698308e+00 +7.3943065632e+00 3.4681740363e+01 0.0000000000e+00 0.0000e+00 1.0000e+00
       13  1    3    3    0    0 +4.4047282927e+01 +5.2891830573e+01 +1.3176834703e+01 7.0080937832e+01 0.0000000000e+00 0.0000e+00 -1.0000e+00
        5  1    4    4  501    0 +2.5533271630e+00 +6.0419455340e+00 -7.9329064777e+00 1.1315723159e+01 4.7000000000e+00 0.0000e+00 1.0000e+00
       -5  1    4    4    0  502 +1.8602373941e+01 -8.8802913102e+00 +8.7678707487e+00 2.2888281881e+01 4.7000000000e+00 0.0000e+00 1.0000e+00
        5  1    4    4  502    0 +4.6472614376e+00 -3.5778910764e+01 +2.2795585749e+01 4.2935489097e+01 4.7000000000e+00 0.0000e+00 1.0000e+00
       -5  1    4    4    0  501 -3.6657545811e+01 -7.4634042017e+00 -4.4201691287e+01 5.8097827668e+01 4.7000000000e+00 0.0000e+00 1.0000e+00
</event>
<event>
10      1 +4.6527485e-10 2.40000000e+02 7.81860800e-03 1.03012300e-01
      -11 -1    0    0    0    0 +0.0000000000e+00 +0.0000000000e+00 +1.2000000000e+02 1.2000000000e+02 0.0000000000e+00 0.0000e+00 1.0000e+00
       11 -1    0    0    0    0 -0.0000000000e+00 -0.0000000000e+00 -1.2000000000e+02 1.2000000000e+02 0.0000000000e+00 0.0000e+00 -1.0000e+00
       23  2    1    2    0    0 +1.9251430515e+01 -1.5332263057e+01 +4.4654101858e+01 1.0499748501e+02 9.1786639434e+01 0.0000e+00 0.0000e+00
       25  2    1    2    0    0 -1.9251430515e+01 +1.5332263057e+01 -4.4654101858e+01 1.3500251499e+02 1.2500397743e+02 0.0000e+00 0.0000e+00
      -11  1    3    3    0    0 -1.0965046543e+01 +7.6153506260e+00 -2.3480642804e+01 2.7010486802e+01 0.0000000000e+00 0.0000e+00 -1.0000e+00
       11  1    3    3    0    0 +3.0216477057e+01 -2.2947613683e+01 +6.8134744662e+01 7.7986998209e+01 0.0000000000e+00 0.0000e+00 1.0000e+00
        5  1    4    4  501    0 -6.7989402900e+00 -1.4384318502e+01 -2.2248103192e+01 2.7752518867e+01 4.7000000000e+00 0.0000e+00 -1.0000e+00
       -5  1    4    4    0  501 -4.3733530661e+01 -2.4748599084e+00 -3.4475907188e+01 5.5941262160e+01 4.7000000000e+00 0.0000e+00 -1.0000e+00
        5  1    4    4  502    0 +1.7847824659e+01 +5.0156418837e+00 +5.9263540954e+00 2.0022816521e+01 4.7000000000e+00 0.0000e+00 1.0000e+00
       -5  1    4    4    0  502 +1.3433215777e+01 +2.7175799584e+01 +6.1435544258e+00 3.1285917441e+01 4.7000000000e+00 0.0000e+00 1.0000e+00
</event>
<event>
10      1 +4.6527485e-10 2.40000000e+02 7.81860800e-03 1.03012300e-01
      -11 -1    0    0    0    0 +0.0000000000e+00 +0.0000000000e+00 +1.2000000000e+02 1.2000000000e+02 0.0000000000e+00 0.0000e+00 1.0000e+00
       11 -1    0    0    0    0 -0.0000000000e+00 -0.0000000000e+00 -1.2000000000e+02 1.2000000000e+02 0.0000000000e+00 0.0000e+00 -1.0000e+00
       23  2    1    2    0    0 -8.9886357225e+00 +5.4632645323e+01 -1.3395688095e+01 1.0263293347e+02 8.5373023056e+01 0.0000e+00 0.0000e+00
       25  2    1    2    0    0 +8.9886357225e+00 -5.4632645323e+01 +1.3395688095e+01 1.3736706653e+02 1.2499898000e+02 0.0000e+00 0.0000e+00
      -11  1    3    3    0    0 -2.0729178336e+01 +4.1460136904e+01 -4.6161425323e+01 6.5418032487e+01 0.0000000000e+00 0.0000e+00 1.0000e+00
       11  1    3    3    0    0 +1.1740542614e+01 +1.3172508419e+01 +3.2765737229e+01 3.7214900981e+01 0.0000000000e+00 0.0000e+00 -1.0000e+00
        5  1    4    4  501    0 -1.6544332559e+01 -2.8447467309e+00 +2.5584434735e+01 3.0959018468e+01 4.7000000000e+00 0.0000e+00 1.0000e+00
       -5  1    4    4    0  501 -6.9636683690e+00 -3.4390692347e-01 +2.8226470380e+01 2.9452242346e+01 4.7000000000e+00 0.0000e+00 1.0000e+00
        5  1    4    4  502    0 +3.1844081709e+01 -3.3023298328e+01 -2.4900638840e+01 5.2409117403e+01 4.7000000000e+00 0.0000e+00 1.0000e+00
       -5  1    4    4    0  502 +6.5255494178e-01 -1.8420693341e+01 -1.5514578180e+01 2.4546688314e+01 4.7000000000e+00 0.0000e+00 1.0000e+00
</event>
<event>
10      1 +4.6527485e-10 2.40000000e+02 7.81860800e-03 1.03012300e-01
      -11 -1    0    0    0    0 +0.0000000000e+00 +0.0000000000e+00 +1.2000000000e+02 1.2000000000e+02 0.0000000000e+00 0.0000e+00 1.0000e+00
       11 -1    0    0    0    0 -0.0000000000e+00 -0.0000000000e+00 -1.2000000000e+02 1.2000000000e+02 0.0000000000e+00 0.0000e+00 -1.0000e+00
       23  2    1    2    0    0 +3.2069326157e+01 -2.6759435638e+01 -3.0489906420e+01 1.0472607167e+02 9.1068142722e+01 0.0000e+00 0.0000e+00
       25  2    1    2    0    0 -3.2069326157e+01 +2.6759435638e+01 +3.0489906420e+01 1.3527392833e+02 1.2499956886e+02 0.0000e+00 0.0000e+00
      -13  1    3    3    0    0 -5.0624794565e+00 -4.6498310491e+01 -4.0077297322e+01 6.1594734656e+01 0.0000000000e+00 0.0000e+00 -1.0000e+00
       13  1    3    3    0    0 +3.7131805614e+01 +1.9738874852e+01 +9.5873909023e+00 4.3131337017e+01 0.0000000000e+00 0.0000e+00 1.0000e+00
        5  1    4    4  501    0 +3.4215710359e+00 +8.9350104091e+00 +3.1454965421e+00 1.1114211977e+01 4.7000000000e+00 0.0000e+00 -1.0000e+00
       -5  1    4    4    0  501 -1.2743601581e+00 +9.7353090498e-01 -7.1580174524e-02 4.9665762812e+00 4.7000000000e+00 0.0000e+00 -1.0000e+00
        5  1    4    4  502    0 -6.4017695267e+01 -1.1273640412e+01 +3.9507090233e+01 7.6211944301e+01 4.7000000000e+00 0.0000e+00 -1.0000e+00
       -5  1    4    4    0  502 +2.9801158232e+01 +2.8124534736e+01 -1.2091100181e+01 4.2981195768e+01 4.7000000000e+00 0.0000e+00 -1.0000e+00
</event>
<event>
10      1 +4.6527485e-10 2.40000000e+02 7.81860800e-03 1.03012300e-01
      -11 -1    0    0    0    0 +0.0000000000e+00 +0.0000000000e+00 +1.2000000000e+02 1.2000000000e+02 0.0000000000e+00 0.0000e+00 1.0000e+00
       11 -1    0    0    0    0 -0.0000000000e+00 -0.0000000000e+00 -1.2000000000e+02 1.2000000000e+02 0.0000000000e+00 0.0000e+00 -1.0000e+00
       23  2    1    2    0    0 +4.1950045428e+01 -2.4911678589e+00 -3.4035714744e+01 1.0380366440e+02 8.8604506856e+01 0.0000e+00 0.0000e+00
       25  2    1    2    0    0 -4.1950045428e+01 +2.4911678589e+00 +3.4035714744e+01 1.3619633560e+02 1.2499999890e+02 0.0000e+00 0.0000e+00
      -13  1    3    3    0    0 +4.9961730485e+01 -1.3741620268e+01 -5.6983362341e+01 7.7020193614e+01 0.0000000000e+00 0.0000e+00 -1.0000e+00
       13  1    3    3    0    0 -8.0116850576e+00 +1.1250452409e+01 +2.2947647597e+01 2.6783470782e+01 0.0000000000e+00 0.0000e+00 1.0000e+00
        5  1    4    4  501    0 -2.6598110821e+00 +3.8472726009e+01 +2.1620560000e+01 4.4460812591e+01 4.7000000000e+00 0.0000e+00 -1.0000e+00
       -5  1    4    4    0  502 -4.6531499572e+00 -4.6867309103e+00 -1.1224275410e+00 8.1833425160e+00 4.7000000000e+00 0.0000e+00 -1.0000e+00
        5  1    4    4  502    0 -1.4489239337e+01 -5.1104925752e+01 +1.3067859120e+01 5.4904557504e+01 4.7000000000e+00 0.0000e+00 1.0000e+00
       -5  1    4    4    0  501 -2.0147845052e+01 +1.9810098512e+01 +4.6972316554e-01 2.8647622993e+01 4.7000000000e+00 0.0000e+00 -1.0000e+00
</event>
<event>
10      1 +4.6527485e-10 2.40000000e+02 7.81860800e-03 1.03012300e-01
      -11 -1    0    0    0    0 +0.0000000000e+00 +0.0000000000e+00 +1.2000000000e+02 1.2000000000e+02 0.0000000000e+00 0.0000e+00 1.0000e+00
       11 -1    0    0    0    0 -0.0000000000e+00 -0.0000000000e+00 -1.2000000000e+02 1.2000000000e+02 0.0000000000e+00 0.0000e+00 -1.0000e+00
       23  2    1    2    0    0 -3.9931468540e+01 -3.0071534709e+01 +3.8283469424e+00 1.0533952961e+02 9.2644162682e+01 0.0000e+00 0.0000e+00
       25  2    1    2    0    0 +3.9931468540e+01 +3.0071534709e+01 -3.8283469424e+00 1.3466047039e+02 1.2497986504e+02 0.0000e+00 0.0000e+00
      -13  1    3    3    0    0 -4.8781467255e+01 -2.6919804332e+01 -3.4729324581e+01 6.5653890964e+01 0.0000000000e+00 0.0000e+00 -1.0000e+00
       13  1    3    3    0    0 +8.8499987146e+00 -3.1517303771e+00 +3.8557671523e+01 3.9685638648e+01 0.0000000000e+00 0.0000e+00 1.0000e+00
        5  1    4    4  501    0 -1.0524481506e+01 +1.9734430174e+01 +3.5450883516e+01 4.2178994621e+01 4.7000000000e+00 0.0000e+00 1.0000e+00
       -5  1    4    4    0  501 -6.7394177426e+00 +1.5235927648e+01 +5.0152339356e+00 1.8022092393e+01 4.7000000000e+00 0.0000e+00 -1.0000e+00
        5  1    4    4  502    0 +7.3889194417e+00 -4.3058073518e+00 -6.0083026858e+00 1.1459747320e+01 4.7000000000e+00 0.0000e+00 1.0000e+00
       -5  1    4    4    0  502 +4.9806448347e+01 -5.9301576040e-01 -3.8286161708e+01 6.2999636054e+01 4.7000000000e+00 0.0000e+00 -1.0000e+00
</event>
<event>
10      1 +4.6527485e-10 2.40000000e+02 7.81860800e-03 1.03012300e-01
      -11 -1    0    0    0    0 +0.0000000000e+00 +0.0000000000e+00 +1.2000000000e+02 1.2000000000e+02 0.0000000000e+00 0.0000e+00 1.0000e+00
       11 -1    0    0    0    0 -0.0000000000e+00 -0.0000000000e+00 -1.2000000000e+02 1.2000000000e+02 0.0000000000e+00 0.0000e+00 -1.0000e+00
       23  2    1    2    0    0 +3.2012565651e+01 -2.3962647396e-01 -4.1168616554e+01 1.0455049812e+02 9.0615064355e+01 0.0000e+00 0.0000e+00
       25  2    1    2    0    0 -3.2012565651e+01 +2.3962647396e-01 +4.1168616554e+01 1.3544950188e+02 1.2500740294e+02 0.0000e+00 0.0000e+00
      -11  1    3    3    0    0 +4.0442828443e+01 -2.0766656928e+01 -6.0116033821e+01 7.5371174429e+01 0.0000000000e+00 0.0000e+00 -1.0000e+00
       11  1    3    3    0    0 -8.4302627920e+00 +2.0527030454e+01 +1.8947417267e+01 2.9179323692e+01 0.0000000000e+00 0.0000e+00 1.0000e+00
        5  1    4    4  501    0 +1.0804524953e+01 -2.9968937613e+00 -8.8892830045e+00 1.5060826140e+01 4.7000000000e+00 0.0000e+00 1.0000e+00
       -5  1    4    4    0  502 -3.6384895536e+01 +1.1045706900e+01 +6.5854908543e+01 7.6189416872e+01 4.7000000000e+00 0.0000e+00 1.0000e+00
        5  1    4    4  502    0 +4.3467278236e-01 +2.8706329679e+00 +1.2038618513e+01 1.3245671359e+01 4.7000000000e+00 0.0000e+00 1.0000e+00
       -5  1    4    4    0  501 -6.8668678499e+00 -1.0679819633e+01 -2.7835627497e+01 3.0953587508e+01 4.7000000000e+00 0.0000e+00 1.0000e+00
</event>
<event>
10      1 +4.6527485e-10 2.40000000e+02 7.81860800e-03 1.03012300e-01
      -11 -1    0    0    0    0 +0.0000000000e+00 +0.0000000000e+00 +1.2000000000e+02 1.2000000000e+02 0.0000000000e+00 0.0000e+00 -1.0000e+00
       11 -1    0    0    0    0 -0.0000000000e+00 -0.0000000000e+00 -1.2000000000e+02 1.2000000000e+02 0.0000000000e+00 0.0000e+00 1.0000e+00
       23  2    1    2    0    0 -3.8080410081e+01 +3.2506370729e+01 +1.6249628806e+01 1.0436965592e+02 9.0123209387e+01 0.0000e+00 0.0000e+00
       25  2    1    2    0    0 +3.8080410081e+01 -3.2506370729e+01 -1.6249628806e+01 1.3563034408e+02 1.2499903211e+02 0.0000e+00 0.0000e+00
      -13  1    3    3    0    0 -6.0561327105e+01 +3.2807657096e+01 +3.2959909808e+01 7.6356874997e+01 0.0000000000e+00 0.0000e+00 -1.0000e+00
       13  1    3    3    0    0 +2.2480917024e+01 -3.0128636661e-01 -1.6710281002e+01 2.8012780921e+01 0.0000000000e+00 0.0000e+00 1.0000e+00
        5  1    4    4  501    0 -1.6514861871e+01 -1.4850147909e+01 +4.9628784365e+00 2.3237635807e+01 4.7000000000e+00 0.0000e+00 1.0000e+00
       -5  1    4    4    0  501 +7.9112502823e+00 -3.5504250594e+01 -2.8967062683e+01 4.6736713746e+01 4.7000000000e+00 0.0000e+00 1.0000e+00
        5  1    4    4  502    0 +9.2495110613e+00 +1.7287810352e+01 +1.7486340601e+01 2.6688648322e+01 4.7000000000e+00 0.0000e+00 -1.0000e+00
       -5  1    4    4    0  502 +3.7434510608e+01 +5.6021742207e-01 -9.7317851604e+00 3.8967346207e+01 4.7000000000e+00 0.0000e+00 -1.0000e+00
</event>
<event>
10      1 +4.6527485e-10 2.40000000e+02 7.81860800e-03 1.03012300e-01
      -11 -1    0    0    0    0 +0.0000000000e+00 +0.0000000000e+00 +1.2000000000e+02 1.2000000000e+02 0.0000000000e+00 0.0000e+00 -1.0000e+00
       11 -1    0    0    0    0 -0.0000000000e+00 -0.0000000000e+00 -1.2000000000e+02 1.2000000000e+02 0.0000000000e+00 0.0000e+00 1.0000e+00
       23  2    1    2    0    0 -3.4953734027e+00 -3.7841733488e+01 +3.9046097731e+01 1.0364043490e+02 8.8161939460e+01 0.0000e+00 0.0000e+00
       25  2    1    2    0    0 +3.4953734027e+00 +3.7841733488e+01 -3.9046097731e+01 1.3635956510e+02 1.2500047527e+02 0.0000e+00 0.0000e+00
      -13  1    3    3    0    0 +1.1679098853e+01 -6.2205943118e+00 -2.6319924869e+01 2.9459049352e+01 0.0000000000e+00 0.0000e+00 1.0000e+00
       13  1    3    3    0    0 -1.5174472256e+01 -3.1621139176e+01 +6.5366022600e+01 7.4181385547e+01 0.0000000000e+00 0.0000e+00 -1.0000e+00
        5  1    4    4  501    0 -1.3595818893e+00 +8.6006860999e+00 +3.6142735272e+00 1.0534383581e+01 4.7000000000e+00 0.0000e+00 1.0000e+00
       -5  1    4    4    0  502 +3.1979832504e+00 -1.1362522812e+00 -1.0134064330e+01 1.1675077129e+01 4.7000000000e+00 0.0000e+00 -1.0000e+00
        5  1    4    4  502    0 +3.2552375225e+01 +1.6190035639e+01 -5.9915413311e+01 7.0240452298e+01 4.7000000000e+00 0.0000e+00 1.0000e+00
       -5  1    4    4    0  501 -3.0895403183e+01 +1.4187264030e+01 +2.7389106383e+01 4.3909652094e+01 4.7000000000e+00 0.0000e+00 -1.0000e+00
</event>
<event>
10      1 +4.6527485e-10 2.40000000e+02 7.81860800e-03 1.03012300e-01
      -11 -1    0    0    0    0 +0.0000000000e+00 +0.0000000000e+00 +1.2000000000e+02 1.2000000000e+02 0.0000000000e+00 0.0000e+00 1.0000e+00
       11 -1    0    0    0    0 -0.0000000000e+00 -0.0000000000e+00 -1.2000000000e+02 1.2000000000e+02 0.0000000000e+00 0.0000e+00 -1.0000e+00
       23  2    1    2    0    0 +2.2273948603e+01 +3.4033743530e+01 -2.7881633940e+01 1.0562309577e+02 9.3404648517e+01 0.0000e+00 0.0000e+00
       25  2    1    2    0    0 -2.2273948603e+01 -3.4033743530e+01 +2.7881633940e+01 1.3437690423e+02 1.2500136957e+02 0.0000e+00 0.0000e+00
      -11  1    3    3    0    0 -2.7300117881e+01 -1.4511667846e+01 -1.9397087333e-01 3.0917997423e+01 0.0000000000e+00 0.0000e+00 -1.0000e+00
       11  1    3    3    0    0 +4.9574066484e+01 +4.8545411376e+01 -2.7687663066e+01 7.4705098349e+01 0.0000000000e+00 0.0000e+00 1.0000e+00
        5  1    4    4  501    0 +4.2256958602e-01 -3.8311852782e+00 +8.2040693344e+00 1.0210450496e+01 4.7000000000e+00 0.0000e+00 -1.0000e+00
       -5  1    4    4    0  501 -5.2657664569e+01 +2.2920017854e+01 +1.8358975051e+01 6.0475605174e+01 4.7000000000e+00 0.0000e+00 -1.0000e+00
        5  1    4    4  502    0 +2.3621529342e+01 -3.2565322706e+01 -4.9263729018e+00 4.0802402397e+01 4.7000000000e+00 0.0000e+00 -1.0000e+00
       -5  1    4    4    0  502 +6.3396170376e+00 -2.0557253399e+01 +6.2449624555e+00 2.2888446159e+01 4.7000000000e+00 0.0000e+00 -1.0000e+00
</event>
<event>
10      1 +4.6527485e-10 2.40000000e+02 7.81860800e-03 1.03012300e-01
      -11 -1    0    0    0    0 +0.0000000000e+00 +0.0000000000e+00 +1.2000000000e+02 1.2000000000e+02 0.0000000000e+00 0.0000e+00 -1.0000e+00
       11 -1    0    0    0    0 -0.0000000000e+00 -0.0000000000e+00 -1.2000000000e+02 1.2000000000e+02 0.0000000000e+00 0.0000e+00 1.0000e+00
       23  2    1    2    0    0 +1.2647231631e+01 +7.9605407342e+00 +2.8373665149e+00 1.1407849190e+02 1.1305984693e+02 0.0000e+00 0.0000e+00
       25  2    1    2    0    0 -1.2647231631e+01 -7.9605407342e+00 -2.8373665149e+00 1.2592150810e+02 1.2499941150e+02 0.0000e+00 0.0000e+00
      -13  1    3    3    0    0 +3.0749095309e+01 +2.4427979186e+01 +4.8419209704e+01 6.2343026055e+01 0.0000000000e+00 0.0000e+00 -1.0000e+00
       13  1    3    3    0    0 -1.8101863678e+01 -1.6467438451e+01 -4.5581843189e+01 5.1735465846e+01 0.0000000000e+00 0.0000e+00 1.0000e+00
        5  1    4    4  501    0 +1.6203730708e+01 -9.6534431130e+00 +2.3519497283e+01 3.0512400844e+01 4.7000000000e+00 0.0000e+00 1.0000e+00
       -5  1    4    4    0  501 +2.4873800744e+01 +7.7802020777e+00 +6.7593739224e+00 2.7331605215e+01 4.7000000000e+00 0.0000e+00 1.0000e+00
        5  1    4    4  502    0 -7.4054125669e+00 +2.5858193785e+00 +1.6969726798e+00 9.3003394250e+00 4.7000000000e+00 0.0000e+00 1.0000e+00
       -5  1    4    4    0  502 -4.6319350516e+01 -8.6731190774e+00 -3.4813210400e+01 5.8777162615e+01 4.7000000000e+00 0.0000e+00 -1.0000e+00
</event>
<event>
10      1 +4.6527485e-10 2.40000000e+02 7.81860800e-03 1.03012300e-01
      -11 -1    0    0    0    0 +0.0000000000e+00 +0.0000000000e+00 +1.2000000000e+02 1.2000000000e+02 0.0000000000e+00 0.0000e+00 -1.0000e+00
       11 -1    0    0    0    0 -0.0000000000e+00 -0.0000000000e+00 -1.2000000000e+02 1.2000000000e+02 0.0000000000e+00 0.0000e+00 1.0000e+00
       23  2    1    2    0    0 -5.1537335721e+01 -6.7749563030e+00 -4.4153747791e+00 1.0455282481e+02 9.0607950173e+01 0.0000e+00 0.0000e+00
       25  2    1    2    0    0 +5.1537335721e+01 +6.7749563030e+00 +4.4153747791e+00 1.3544717519e+02 1.2499777889e+02 0.0000e+00 0.0000e+00
      -13  1    3    3    0    0 -5.2961141921e+00 -3.5757249493e+01 -2.7378341818e+01 4.5345378128e+01 0.0000000000e+00 0.0000e+00 1.0000e+00
       13  1    3    3    0    0 -4.6241221528e+01 +2.8982293190e+01 +2.2962967039e+01 5.9207446679e+01 0.0000000000e+00 0.0000e+00 -1.0000e+00
        5  1    4    4  501    0 +5.9001408713e+00 +1.0074591794e+01 +4.4369599761e+01 4.6120065536e+01 4.7000000000e+00 0.0000e+00 -1.0000e+00
       -5  1    4    4    0  501 +1.5731936570e+01 +7.0250507905e+00 +1.3846185572e+01 2.2597610974e+01 4.7000000000e+00 0.0000e+00 -1.0000e+00
        5  1    4    4  502    0 +2.5228125956e+01 -1.4504482637e+00 -2.4932110518e+01 3.5808689927e+01 4.7000000000e+00 0.0000e+00 1.0000e+00
       -5  1    4    4    0  502 +4.6771323229e+00 -8.8742380180e+00 -2.8868300035e+01 3.0920808756e+01 4.7000000000e+00 0.0000e+00 1.0000e+00
</event>
<event>
10      1 +4.6527485e-10 2.40000000e+02 7.81860800e-03 1.03012300e-01
      -11 -1    0    0    0    0 +0.0000000000e+00 +0.0000000000e+00 +1.2000000000e+02 1.2000000000e+02 0.0000000000e+00 0.0000e+00 1.0000e+00
       11 -1    0    0    0    0 -0.0000000000e+00 -0.0000000000e+00 -1.2000000000e+02 1.2000000000e+02 0.0000000000e+00 0.0000e+00 -1.0000e+00
       23  2    1    2    0    0 -3.8644180888e-01 -4.1538943888e+01 +2.8852666336e+01 1.0516126704e+02 9.2199688367e+01 0.0000e+00 0.0000e+00
       25  2    1    2    0    0 +3.8644180888e-01 +4.1538943888e+01 -2.8852666336e+01 1.3483873296e+02 1.2499349725e+02 0.0000e+00 0.0000e+00
      -11  1    3    3    0    0 -3.3536178725e+01 -1.4846156076e+00 -1.5355655994e+01 3.6914435360e+01 0.0000000000e+00 0.0000e+00 -1.0000e+00
       11  1    3    3    0    0 +3.3149736916e+01 -4.0054328281e+01 +4.4208322330e+01 6.8246831684e+01 0.0000000000e+00 0.0000e+00 1.0000e+00
        5  1    4    4  501    0 +3.5048942178e+00 -1.1327144117e+01 +2.4406272331e+01 2.7538057419e+01 4.7000000000e+00 0.0000e+00 -1.0000e+00
       -5  1    4    4    0  501 +2.5361289972e+01 +1.5531926698e+01 +3.2419571321e+00 3.0282603291e+01 4.7000000000e+00 0.0000e+00 -1.0000e+00
        5  1    4    4  502    0 -3.0031546745e+01 +2.7275073419e+01 -4.0825519325e+01 5.7746311208e+01 4.7000000000e+00 0.0000e+00 1.0000e+00
       -5  1    4    4    0  502 +1.5518043639e+00 +1.0059087888e+01 -1.5675376474e+01 1.9271761039e+01 4.7000000000e+00 0.0000e+00 1.0000e+00
</event>
<event>
10      1 +4.6527485e-10 2.40000000e+02 7.81860800e-03 1.03012300e-01
      -11 -1    0    0    0    0 +0.0000000000e+00 +0.0000000000e+00 +1.2000000000e+02 1.2000000000e+02 0.0000000000e+00 0.0000e+00 1.0000e+00
       11 -1    0    0    0    0 -0.0000000000e+00 -0.0000000000e+00 -1.2000000000e+02 1.2000000000e+02 0.0000000000e+00 0.0000e+00 -1.0000e+00
       23  2    1    2    0    0 -3.1467148843e+01 +1.3097358957e+01 -3.9367260217e+01 1.0458226429e+02 9.0697004135e+01 0.0000e+00 0.0000e+00
       25  2    1    2    0    0 +3.1467148843e+01 -1.3097358957e+01 +3.9367260217e+01 1.3541773571e+02 1.2500583866e+02 0.0000e+00 0.0000e+00
      -13  1    3    3    0    0 -1.9080121238e+01 -4.8237344008e+00 -6.6749859222e+01 6.9590682898e+01 0.0000000000e+00 0.0000e+00 -1.0000e+00
       13  1    3    3    0    0 -1.2387027606e+01 +1.7921093358e+01 +2.7382599005e+01 3.4991581392e+01 0.0000000000e+00 0.0000e+00 1.0000e+00
        5  1    4    4  501    0 -9.8395136532e+00 +1.9645176684e+01 -1.7584550015e+01 2.8531656017e+01 4.7000000000e+00 0.0000e+00 1.0000e+00
       -5  1    4    4    0  501 +2.1745378280e+01 -1.6277357904e+01 -1.1454060588e+01 2.9851287423e+01 4.7000000000e+00 0.0000e+00 1.0000e+00
        5  1    4    4  502    0 +1.5773707937e+01 -2.1242639502e+00 +5.1269148987e+01 5.3888199053e+01 4.7000000000e+00 0.0000e+00 1.0000e+00
       -5  1    4    4    0  502 +3.7875762795e+00 -1.4340913787e+01 +1.7136721834e+01 2.3146593216e+01 4.7000000000e+00 0.0000e+00 1.0000e+00
</event>
<event>
10      1 +4.6527485e-10 2.40000000e+02 7.81860800e-03 1.03012300e-01
      -11 -1    0    0    0    0 +0.0000000000e+00 +0.0000000000e+00 +1.2000000000e+02 1.2000000000e+02 0.0000000000e+00 0.0000e+00 -1.0000e+00
       11 -1    0    0    0    0 -0.0000000000e+00 -0.0000000000e+00 -1.2000000000e+02 1.2000000000e+02 0.0000000000e+00 0.0000e+00 1.0000e+00
       23  2    1    2    0    0 +4.6887683646e+01 +1.9680560161e+01 -1.2760819820e+01 1.0445063938e+02 9.0340014494e+01 0.0000e+00 0.0000e+00
       25  2    1    2    0    0 -4.6887683646e+01 -1.9680560161e+01 +1.2760819820e+01 1.3554936062e+02 1.2500004526e+02 0.0000e+00 0.0000e+00
      -11  1    3    3    0    0 +2.7071943334e+01 -3.2916137778e+01 -2.1224404605e+01 4.7611317908e+01 0.0000000000e+00 0.0000e+00 1.0000e+00
       11  1    3    3    0    0 +1.9815740312e+01 +5.2596697939e+01 +8.4635847850e+00 5.6839321474e+01 0.0000000000e+00 0.0000e+00 -1.0000e+00
        5  1    4    4  501    0 -3.0069849150e+00 +7.6217707904e+00 +1.3049202490e+01 1.6109159938e+01 4.7000000000e+00 0.0000e+00 1.0000e+00
       -5  1    4    4    0  502 -1.2604518146e+01 -5.8283279561e+01 -1.8989843538e+01 6.2757618754e+01 4.7000000000e+00 0.0000e+00 1.0000e+00
        5  1    4    4  502    0 +9.4383730446e-01 -1.7738553564e+00 -2.6986097480e+00 5.7801285673e+00 4.7000000000e+00 0.0000e+00 1.0000e+00
       -5  1    4    4    0  501 -3.2220017889e+01 +3.2754803966e+01 +2.1400070616e+01 5.0902453360e+01 4.7000000000e+00 0.0000e+00 1.0000e+00
</event>
<event>
10      1 +4.6527485e-10 2.40000000e+02 7.81860800e-03 1.03012300e-01
      -11 -1    0    0    0    0 +0.0000000000e+00 +0.0000000000e+00 +1.2000000000e+02 1.2000000000e+02 0.0000000000e+00 0.0000e+00 -1.0000e+00
       11 -1    0    0    0    0 -0.0000000000e+00 -0.0000000000e+00 -1.2000000000e+02 1.2000000000e+02 0.0000000000e+00 0.0000e+00 1.0000e+00
       23  2    1    2    0    0 -2.5487125945e+01 -2.1032165859e+01 +4.1254795638e+01 1.0428353306e+02 8.9895225208e+01 0.0000e+00 0.0000e+00
       25  2    1    2    0    0 +2.5487125945e+01 +2.1032165859e+01 -4.1254795638e+01 1.3571646694e+02 1.2500022258e+02 0.0000e+00 0.0000e+00
      -13  1    3    3    0    0 -8.7715884328e+00 -2.7429043260e+01 -2.3457220376e+01 3.7142083484e+01 0.0000000000e+00 0.0000e+00 1.0000e+00
       13  1    3    3    0    0 -1.6715537512e+01 +6.3968774005e+00 +6.4712016014e+01 6.7141449578e+01 0.0000000000e+00 0.0000e+00 -1.0000e+00
        5  1    4    4  501    0 -3.1097856835e+01 -3.2015922961e+00 -4.0969603818e+01 5.1748674669e+01 4.7000000000e+00 0.0000e+00 1.0000e+00
       -5  1    4    4    0  501 -2.1327641776e+00 -6.9615637335e+00 -1.0308488826e+01 1.3467256384e+01 4.7000000000e+00 0.0000e+00 1.0000e+00
        5  1    4    4  502    0 +4.9895922887e+01 +2.6885340935e+01 +1.8757227174e+00 5.6903717046e+01 4.7000000000e+00 0.0000e+00 1.0000e+00
       -5  1    4    4    0  502 +8.8218240697e+00 +4.3099809536e+00 +8.1475742887e+00 1.3596818838e+01 4.7000000000e+00 0.0000e+00 1.0000e+00
</event>
<event>
10      1 +4.6527485e-10 2.40000000e+02 7.81860800e-03 1.03012300e-01
      -11 -1    0    0    0    0 +0.0000000000e+00 +0.0000000000e+00 +1.2000000000e+02 1.2000000000e+02 0.0000000000e+00 0.0000e+00 1.0000e+00
       11 -1    0    0    0    0 -0.0000000000e+00 -0.0000000000e+00 -1.2000000000e+02 1.2000000000e+02 0.0000000000e+00 0.0000e+00 -1.0000e+00
       23  2    1    2    0    0 +4.7789311781e+01 +1.0295945935e+00 -1.9307751592e+01 1.0478524892e+02 9.1226535250e+01 0.0000e+00 0.0000e+00
       25  2    1    2    0    0 -4.7789311781e+01 -1.0295945935e+00 +1.9307751592e+01 1.3521475108e+02 1.2500144500e+02 0.0000e+00 0.0000e+00
      -13  1    3    3    0    0 +5.2480072334e+01 -1.6422068281e+00 -5.0666407971e+01 7.2965332399e+01 0.0000000000e+00 0.0000e+00 -1.0000e+00
       13  1    3    3    0    0 -4.6907605532e+00 +2.6718014216e+00 +3.1358656378e+01 3.1819916519e+01 0.0000000000e+00 0.0000e+00 1.0000e+00
        5  1    4    4  501    0 +7.7676380912e+00 -4.6235192703e-01 -6.8876640075e-01 9.1167082861e+00 4.7000000000e+00 0.0000e+00 -1.0000e+00
       -5  1    4    4    0  502 -3.7638810540e+01 -2.1850466992e+01 -4.9031821472e+00 4.4048316220e+01 4.7000000000e+00 0.0000e+00 1.0000e+00
        5  1    4    4  502    0 -3.7559441618e+01 -1.1447442745e+01 +9.8800661327e+00 4.0761026813e+01 4.7000000000e+00 0.0000e+00 1.0000e+00
       -5  1    4    4    0  501 +1.9641302286e+01 +3.2730667071e+01 +1.5019634008e+01 4.1288699763e+01 4.7000000000e+00 0.0000e+00 -1.0000e+00
</event>
<event>
10      1 +4.6527485e-10 2.40000000e+02 7.81860800e-03 1.03012300e-01
      -11 -1    0    0    0    0 +0.0000000000e+00 +0.0000000000e+00 +1.2000000000e+02 1.2000000000e+02 0.0000000000e+00 0.0000e+00 1.0000e+00
       11 -1    0    0    0    0 -0.0000000000e+00 -0.0000000000e+00 -1.2000000000e+02 1.2000000000e+02 0.0000000000e+00 0.0000e+00 -1.0000e+00
       23  2    1    2    0    0 +1.8329161097e+00 +3.9730381788e+01 -3.3716909557e+01 1.0455958284e+02 9.0631195260e+01 0.0000e+00 0.0000e+00
       25  2    1    2    0    0 -1.8329161097e+00 -3.9730381788e+01 +3.3716909557e+01 1.3544041716e+02 1.2500165516e+02 0.0000e+00 0.0000e+00
      -13  1    3    3    0    0 +2.7422028819e+01 +1.6611209920e+01 -5.5267434927e+01 6.3893578104e+01 0.0000000000e+00 0.0000e+00 -1.0000e+00
       13  1    3    3    0    0 -2.5589112709e+01 +2.3119171868e+01 +2.1550525370e+01 4.0666004731e+01 0.0000000000e+00 0.0000e+00 1.0000e+00
        5  1    4    4  501    0 +2.5363715599e+01 +6.7657426994e+00 +1.8975871267e+01 3.2730215912e+01 4.7000000000e+00 0.0000e+00 -1.0000e+00
       -5  1    4    4    0  501 +2.5557569093e+01 -2.2700304345e-01 +4.3256923711e+00 2.6344686045e+01 4.7000000000e+00 0.0000e+00 -1.0000e+00
        5  1    4    4  502    0 -1.7682263557e+00 -8.3163027186e+00 +8.0008923687e+00 1.2585380171e+01 4.7000000000e+00 0.0000e+00 -1.0000e+00
       -5  1    4    4    0  502 -5.0985974446e+01 -3.7952818725e+01 +2.4144535500e+00 6.3780135037e+01 4.7000000000e+00 0.0000e+00 -1.0000e+00
</event>
<event>
10      1 +4.6527485e-10 2.40000000e+02 7.81860800e-03 1.03012300e-01
      -11 -1    0    0    0    0 +0.0000000000e+00 +0.0000000000e+00 +1.2000000000e+02 1.2000000000e+02 0.0000000000e+00 0.0000e+00 1.0000e+00
       11 -1    0    0    0    0 -0.0000000000e+00 -0.0000000000e+00 -1.2000000000e+02 1.2000000000e+02 0.0000000000e+00 0.0000e+00 -1.0000e+00
       23  2    1    2    0    0 +1.7687129131e+00 +8.2227151694e+00 -5.0493934723e+01 1.0492302573e+02 9.1588550015e+01 0.0000e+00 0.0000e+00
       25  2    1    2    0    0 -1.7687129131e+00 -8.2227151694e+00 +5.0493934723e+01 1.3507697427e+02 1.2500164057e+02 0.0000e+00 0.0000e+00
      -13  1    3    3    0    0 +6.0881228049e+00 +1.1280382011e+01 -7.6915681486e+01 7.7976498486e+01 0.0000000000e+00 0.0000e+00 -1.0000e+00
       13  1    3    3    0    0 -4.3194098918e+00 -3.0576668414e+00 +2.6421746763e+01 2.6946527241e+01 0.0000000000e+00 0.0000e+00 1.0000e+00
        5  1    4    4  501    0 +3.6703171876e+01 +1.3628102417e+01 +3.7735256386e+01 5.4579186287e+01 4.7000000000e+00 0.0000e+00 -1.0000e+00
       -5  1    4    4    0  501 +1.6930411573e+01 -4.4715615151e+00 +6.6314856718e+00 1.9305447434e+01 4.7000000000e+00 0.0000e+00 -1.0000e+00
        5  1    4    4  502    0 -4.5967905232e+01 -1.9184159401e+01 +3.3490741380e+00 5.0143659429e+01 4.7000000000e+00 0.0000e+00 1.0000e+00
       -5  1    4    4    0  502 -9.4343911295e+00 +1.8049033301e+00 +2.7781185275e+00 1.1048681123e+01 4.7000000000e+00 0.0000e+00 1.0000e+00
</event>
<event>
10      1 +4.6527485e-10 2.40000000e+02 7.81860800e-03 1.03012300e-01
      -11 -1    0    0    0    0 +0.0000000000e+00 +0.0000000000e+00 +1.2000000000e+02 1.2000000000e+02 0.0000000000e+00 0.0000e+00 1.0000e+00
       11 -1    0    0    0    0 -0.0000000000e+00 -0.0000000000e+00 -1.2000000000e+02 1.2000000000e+02 0.0000000000e+00 0.0000e+00 -1.0000e+00
       23  2    1    2    0    0 +4.9144633919e+01 -2.8334461426e+00 +8.8887024007e+00 1.0536345103e+02 9.2732002685e+01 0.0000e+00 0.0000e+00
       25  2    1    2    0    0 -4.9144633919e+01 +2.8334461426e+00 -8.8887024007e+00 1.3463654897e+02 1.2499907131e+02 0.0000e+00 0.0000e+00
      -13  1    3    3    0    0 +3.6500140065e+01 -1.0813068245e+01 -3.9415874399e+01 5.4797753825e+01 0.0000000000e+00 0.0000e+00 -1.0000e+00
       13  1    3    3    0    0 +1.2644493854e+01 +7.9796221028e+00 +4.8304576800e+01 5.0565697202e+01 0.0000000000e+00 0.0000e+00 1.0000e+00
        5  1    4    4  501    0 +1.2630301245e+01 -4.3922881755e+01 +6.8656928270e+00 4.6453974956e+01 4.7000000000e+00 0.0000e+00 1.0000e+00
       -5  1    4    4    0  501 +8.5950669274e-01 -2.5160516422e-01 +2.0456781181e+00 5.2035426275e+00 4.7000000000e+00 0.0000e+00 1.0000e+00
        5  1    4    4  502    0 -5.5011296158e+01 +3.3819069178e+01 -1.7350732406e+01 6.7030665073e+01 4.7000000000e+00 0.0000e+00 -1.0000e+00
       -5  1    4    4    0  502 -7.6231456990e+00 +1.3188863884e+01 -4.4934093990e-01 1.5948366317e+01 4.7000000000e+00 0.0000e+00 1.0000e+00
</event>
<event>
10      1 +4.6527485e-10 2.40000000e+02 7.81860800e-03 1.03012300e-01
      -11 -1    0    0    0    0 +0.0000000000e+00 +0.0000000000e+00 +1.2000000000e+02 1.2000000000e+02 0.0000000000e+00 0.0000e+00 1.0000e+00
       11 -1    0    0    0    0 -0.0000000000e+00 -0.0000000000e+00 -1.2000000000e+02 1.2000000000e+02 0.0000000000e+00 0.0000e+00 -1.0000e+00
       23  2    1    2    0    0 -2.2261702650e+01 +4.4404229648e+01 +1.3214159469e+01 1.0484502974e+02 9.1381328695e+01 0.0000e+00 0.0000e+00
       25  2    1    2    0    0 +2.2261702650e+01 -4.4404229648e+01 -1.3214159469e+01 1.3515497026e+02 1.2499973184e+02 0.0000e+00 0.0000e+00
      -13  1    3    3    0    0 -2.3149066940e+01 -2.2932313715e+01 +1.8191573188e+01 3.7318944888e+01 0.0000000000e+00 0.0000e+00 1.0000e+00
       13  1    3    3    0    0 +8.8736428922e-01 +6.7336543363e+01 -4.9774137191e+00 6.7526084847e+01 0.0000000000e+00 0.0000e+00 -1.0000e+00
        5  1    4    4  501    0 +1.7905101234e+00 -2.4380770338e+00 +9.3325510950e+00 1.0878265306e+01 4.7000000000e+00 0.0000e+00 1.0000e+00
       -5  1    4    4    0  501 -5.4737798521e+00 -5.3362002873e+01 +2.9225869692e+01 6.1267504240e+01 4.7000000000e+00 0.0000e+00 1.0000e+00
        5  1    4    4  502    0 +1.6962128309e+01 -1.3349736744e+00 -1.6497683380e+01 2.4161115627e+01 4.7000000000e+00 0.0000e+00 1.0000e+00
       -5  1    4    4    0  502 +8.9828440706e+00 +1.2730823933e+01 -3.5274896877e+01 3.8848085092e+01 4.7000000000e+00 0.0000e+00 1.0000e+00
</event>
<event>
10      1 +4.6527485e-10 2.40000000e+02 7.81860800e-03 1.03012300e-01
      -11 -1    0    0    0    0 +0.0000000000e+00 +0.0000000000e+00 +1.2000000000e+02 1.2000000000e+02 0.0000000000e+00 0.0000e+00 1.0000e+00
       11 -1    0    0    0    0 -0.0000000000e+00 -0.0000000000e+00 -1.2000000000e+02 1.2000000000e+02 0.0000000000e+00 0.0000e+00 -1.0000e+00
       23  2    1    2    0    0 +2.2512171234e+00 +4.7629844151e+01 +2.1851967248e+01 1.0443937319e+02 9.0312812868e+01 0.0000e+00 0.0000e+00
       25  2    1    2    0    0 -2.2512171234e+00 -4.7629844151e+01 -2.1851967248e+01 1.3556062681e+02 1.2500202012e+02 0.0000e+00 0.0000e+00
      -13  1    3    3    0    0 -1.5414463284e+01 +6.6018411289e+01 +3.4397223715e+01 7.6021084620e+01 0.0000000000e+00 0.0000e+00 1.0000e+00
       13  1    3    3    0    0 +1.7665680408e+01 -1.8388567138e+01 -1.2545256467e+01 2.8418288574e+01 0.0000000000e+00 0.0000e+00 -1.0000e+00
        5  1    4    4  501    0 -1.3835459240e+01 -1.8282109979e+01 -3.2568786261e+01 4.0105751660e+01 4.7000000000e+00 0.0000e+00 -1.0000e+00
       -5  1    4    4    0  502 +1.1678081787e+01 +8.7358530412e+00 +1.2025134869e+01 1.9477848731e+01 4.7000000000e+00 0.0000e+00 1.0000e+00
        5  1    4    4  502    0 +5.7809256727e+00 +7.0089733925e+00 +2.2293423218e+01 2.4528178253e+01 4.7000000000e+00 0.0000e+00 1.0000e+00
       -5  1    4    4    0  501 -5.8747653433e+00 -4.5092560606e+01 -2.3601739075e+01 5.1448848162e+01 4.7000000000e+00 0.0000e+00 -1.0000e+00
</event>
<event>
10      1 +4.6527485e-10 2.40000000e+02 7.81860800e-03 1.03012300e-01
      -11 -1    0    0    0    0 +0.0000000000e+00 +0.0000000000e+00 +1.2000000000e+02 1.2000000000e+02 0.0000000000e+00 0.0000e+00 -1.0000e+00
       11 -1    0    0    0    0 -0.0000000000e+00 -0.0000000000e+00 -1.2000000000e+02 1.2000000000e+02 0.0000000000e+00 0.0000e+00 1.0000e+00
       23  2    1    2    0    0 -4.4899036969e+01 -2.4788380333e+01 -5.5129736360e+00 1.0477341149e+02 9.1195874669e+01 0.0000e+00 0.0000e+00
       25  2    1    2    0    0 +4.4899036969e+01 +2.4788380333e+01 +5.5129736360e+00 1.3522658851e+02 1.2500180015e+02 0.0000e+00 0.0000e+00
      -11  1    3    3    0    0 +2.3469212564e+01 +1.6136728166e+00 +1.5931271779e+01 2.8411499412e+01 0.0000000000e+00 0.0000e+00 1.0000e+00
       11  1    3    3    0    0 -6.8368249533e+01 -2.6402053150e+01 -2.1444245415e+01 7.6361912078e+01 0.0000000000e+00 0.0000e+00 -1.0000e+00
        5  1    4    4  501    0 +1.7902368146e+01 +4.9277230149e+01 -3.7808386747e+01 6.4809754705e+01 4.7000000000e+00 0.0000e+00 -1.0000e+00
       -5  1    4    4    0  502 +1.8029383147e+00 -1.0717390186e+00 +5.0114366419e+00 7.1835721133e+00 4.7000000000e+00 0.0000e+00 -1.0000e+00
        5  1    4    4  502    0 +2.9843963342e+01 -2.7649825487e+01 +3.7157362791e+01 5.5298594982e+01 4.7000000000e+00 0.0000e+00 -1.0000e+00
       -5  1    4    4    0  501 -4.6502328344e+00 +4.2327146893e+00 +1.1525609508e+00 7.9346667101e+00 4.7000000000e+00 0.0000e+00 -1.0000e+00
</event>
<event>
10      1 +4.6527485e-10 2.40000000e+02 7.81860800e-03 1.03012300e-01
      -11 -1    0    0    0    0 +0.0000000000e+00 +0.0000000000e+00 +1.2000000000e+02 1.2000000000e+02 0.0000000000e+00 0.0000e+00 -1.0000e+00
       11 -1    0    0    0    0 -0.0000000000e+00 -0.0000000000e+00 -1.2000000000e+02 1.2000000000e+02 0.0000000000e+00 0.0000e+00 1.0000e+00
       23  2    1    2    0    0 +1.0720907776e+01 +2.3082305951e+01 +4.4939144860e+01 1.0475493755e+02 9.1139121612e+01 0.0000e+00 0.0000e+00
       25  2    1    2    0    0 -1.0720907776e+01 -2.3082305951e+01 -4.4939144860e+01 1.3524506245e+02 1.2499587779e+02 0.0000e+00 0.0000e+00
      -13  1    3    3    0    0 -1.7439438387e+01 -2.8081094362e+01 +3.7022490497e+00 3.3262419032e+01 0.0000000000e+00 0.0000e+00 1.0000e+00
       13  1    3    3    0    0 +2.8160346163e+01 +5.1163400313e+01 +4.1236895810e+01 7.1492518515e+01 0.0000000000e+00 0.0000e+00 -1.0000e+00
        5  1    4    4  501    0 +1.6047485897e+01 -5.0303152259e+00 -3.2807631884e+01 3.7165260456e+01 4.7000000000e+00 0.0000e+00 1.0000e+00
       -5  1    4    4    0  501 +1.2702414277e+01 -2.2343514052e+01 -2.8700708140e+01 3.8812428375e+01 4.7000000000e+00 0.0000e+00 1.0000e+00
        5  1    4    4  502    0 -2.1012895471e+01 +1.3967304650e+01 -7.8335843550e+00 2.6834351476e+01 4.7000000000e+00 0.0000e+00 -1.0000e+00
       -5  1    4    4    0  502 -1.8457912479e+01 -9.6757813230e+00 +2.4402779518e+01 3.2433022146e+01 4.7000000000e+00 0.0000e+00 -1.0000e+00
</event>
<event>
10      1 +4.6527485e-10 2.40000000e+02 7.81860800e-03 1.03012300e-01
      -11 -1    0    0    0    0 +0.0000000000e+00 +0.0000000000e+00 +1.2000000000e+02 1.2000000000e+02 0.0000000000e+00 0.0000e+00 -1.0000e+00
       11 -1    0    0    0    0 -0.0000000000e+00 -0.0000000000e+00 -1.2000000000e+02 1.2000000000e+02 0.0000000000e+00 0.0000e+00 1.0000e+00
       23  2    1    2    0    0 -5.1547270284e+01 -8.3669428517e+00 +7.0236962745e-01 1.0452651876e+02 9.0543762867e+01 0.0000e+00 0.0000e+00
       25  2    1    2    0    0 +5.1547270284e+01 +8.3669428517e+00 -7.0236962745e-01 1.3547348124e+02 1.2500177595e+02 0.0000e+00 0.0000e+00
      -13  1    3    3    0    0 -1.7680417193e+01 +4.0418999969e+01 -6.8998153151e+00 4.4653109208e+01 0.0000000000e+00 0.0000e+00 1.0000e+00
       13  1    3    3    0    0 -3.3866853091e+01 -4.8785942821e+01 +7.6021849425e+00 5.9873409549e+01 0.0000000000e+00 0.0000e+00 -1.0000e+00
        5  1    4    4  501    0 +1.5106797136e+01 +3.1174017318e+00 -2.2589751267e+01 2.7754646018e+01 4.7000000000e+00 0.0000e+00 -1.0000e+00
       -5  1    4    4    0  502 -2.2163295148e+01 +1.7103622972e+00 -1.7986410591e+01 2.8978232467e+01 4.7000000000e+00 0.0000e+00 1.0000e+00
        5  1    4    4  502    0 +5.3971764707e+01 +9.9464238260e+00 +4.2039480417e+01 6.9291346114e+01 4.7000000000e+00 0.0000e+00 1.0000e+00
       -5  1    4    4    0  501 +4.6320035880e+00 -6.4072450032e+00 -2.1656881864e+00 9.4492566423e+00 4.7000000000e+00 0.0000e+00 -1.0000e+00
</event>
<event>
10      1 +4.6527485e-10 2.40000000e+02 7.81860800e-03 1.03012300e-01
      -11 -1    0    0    0    0 +0.0000000000e+00 +0.0000000000e+00 +1.2000000000e+02 1.2000000000e+02 0.0000000000e+00 0.0000e+00 1.0000e+00
       11 -1    0    0    0    0 -0.0000000000e+00 -0.0000000000e+00 -1.2000000000e+02 1.2000000000e+02 0.0000000000e+00 0.0000e+00 -1.0000e+00
       23  2    1    2    0    0 -3.6345984919e+00 -5.1825837735e+01 -2.5434135170e-01 1.0463685633e+02 9.0827744930e+01 0.0000e+00 0.0000e+00
       25  2    1    2    0    0 +3.6345984919e+00 +5.1825837735e+01 +2.5434135170e-01 1.3536314367e+02 1.2499595279e+02 0.0000e+00 0.0000e+00
      -11  1    3    3    0    0 +2.9342761905e+01 -1.4634853488e+00 -2.5935552683e+01 3.9189186756e+01 0.0000000000e+00 0.0000e+00 -1.0000e+00
       11  1    3    3    0    0 -3.2977360397e+01 -5.0362352386e+01 +2.5681211331e+01 6.5447669569e+01 0.0000000000e+00 0.0000e+00 1.0000e+00
        5  1    4    4  501    0 +7.5583652632e+00 -1.4729542562e+00 +2.0192194589e+01 2.2115903826e+01 4.7000000000e+00 0.0000e+00 1.0000e+00
       -5  1    4    4    0  501 +2.4373559756e+00 -2.3259822976e+01 +2.2579112071e+00 2.3961390445e+01 4.7000000000e+00 0.0000e+00 1.0000e+00
        5  1    4    4  502    0 -1.2795365188e+01 +4.2646953219e+01 +5.0565955384e+00 4.5057109845e+01 4.7000000000e+00 0.0000e+00 1.0000e+00
       -5  1    4    4    0  502 +6.4342424407e+00 +3.3911661749e+01 -2.7252359983e+01 4.4228739559e+01 4.7000000000e+00 0.0000e+00 1.0000e+00
</event>
<event>
10      1 +4.6527485e-10 2.40000000e+02 7.81860800e-03 1.03012300e-01
      -11 -1    0    0    0    0 +0.0000000000e+00 +0.0000000000e+00 +1.2000000000e+02 1.2000000000e+02 0.0000000000e+00 0.0000e+00 1.0000e+00
       11 -1    0    0    0    0 -0.0000000000e+00 -0.0000000000e+00 -1.2000000000e+02 1.2000000000e+02 0.0000000000e+00 0.0000e+00 -1.0000e+00
       23  2    1    2    0    0 +2.1281662371e+01 -1.8976368061e+01 -4.2828460000e+01 1.0482828688e+02 9.1332803774e+01 0.0000e+00 0.0000e+00
       25  2    1    2    0    0 -2.1281662371e+01 +1.8976368061e+01 +4.2828460000e+01 1.3517171312e+02 1.2499641333e+02 0.0000e+00 0.0000e+00
      -13  1    3    3    0    0 +4.3589962913e+01 -1.8900237405e+00 +1.0206701320e+01 4.4808858592e+01 0.0000000000e+00 0.0000e+00 1.0000e+00
       13  1    3    3    0    0 -2.2308300542e+01 -1.7086344321e+01 -5.3035161320e+01 6.0019428284e+01 0.0000000000e+00 0.0000e+00 -1.0000e+00
        5  1    4    4  501    0 -8.8274357169e-01 +4.9038663938e+00 -6.1499442627e+00 9.2053764864e+00 4.7000000000e+00 0.0000e+00 1.0000e+00
       -5  1    4    4    0  501 -1.7527947108e+00 -5.6026236809e+00 +8.1554045984e-01 7.5641779230e+00 4.7000000000e+00 0.0000e+00 1.0000e+00
        5  1    4    4  502    0 +7.7350433133e+00 -1.2117656834e+01 -2.7888968760e+01 3.1726220713e+01 4.7000000000e+00 0.0000e+00 1.0000e+00
       -5  1    4    4    0  502 -2.6381167401e+01 +3.1792782182e+01 +7.6051832564e+01 8.6675938002e+01 4.7000000000e+00 0.0000e+00 1.0000e+00
</event>
<event>
10      1 +4.6527485e-10 2.40000000e+02 7.81860800e-03 1.03012300e-01
      -11 -1    0    0    0    0 +0.0000000000e+00 +0.0000000000e+00 +1.2000000000e+02 1.2000000000e+02 0.0000000000e+00 0.0000e+00 -1.0000e+00
       11 -1    0    0    0    0 -0.0000000000e+00 -0.0000000000e+00 -1.2000000000e+02 1.2000000000e+02 0.0000000000e+00 0.0000e+00 1.0000e+00
       23  2    1    2    0    0 -3.0226396341e+00 +2.6809716837e+01 -4.3179700114e+01 1.0502822853e+02 9.1861553545e+01 0.0000e+00 0.0000e+00
       25  2    1    2    0    0 +3.0226396341e+00 -2.6809716837e+01 +4.3179700114e+01 1.3497177147e+02 1.2499998129e+02 0.0000e+00 0.0000e+00
      -11  1    3    3    0    0 -6.1957509969e+00 +5.7816578822e+01 -4.5412338638e+01 7.3779567752e+01 0.0000000000e+00 0.0000e+00 -1.0000e+00
       11  1    3    3    0    0 +3.1731113628e+00 -3.1006861985e+01 +2.2326385236e+00 3.1248660782e+01 0.0000000000e+00 0.0000e+00 1.0000e+00
        5  1    4    4  501    0 -7.1123475390e+00 -2.3488118336e+01 +1.3932775172e+01 2.8609254001e+01 4.7000000000e+00 0.0000e+00 -1.0000e+00
       -5  1    4    4    0  501 -3.3161865185e+01 -3.1204528036e+01 +5.7629406037e+00 4.6138198458e+01 4.7000000000e+00 0.0000e+00 -1.0000e+00
        5  1    4    4  502    0 +1.0788014397e+01 +1.6766025229e+01 +1.1758458338e+01 2.3618471566e+01 4.7000000000e+00 0.0000e+00 1.0000e+00
       -5  1    4    4    0  502 +3.2508837962e+01 +1.1116904307e+01 +1.1725526000e+01 3.6605847442e+01 4.7000000000e+00 0.0000e+00 1.0000e+00
</event>
<event>
10      1 +4.6527485e-10 2.40000000e+02 7.81860800e-03 1.03012300e-01
      -11 -1    0    0    0    0 +0.0000000000e+00 +0.0000000000e+00 +1.2000000000e+02 1.2000000000e+02 0.0000000000e+00 0.0000e+00 -1.0000e+00
       11 -1    0    0    0    0 -0.0000000000e+00 -0.0000000000e+00 -1.2000000000e+02 1.2000000000e+02 0.0000000000e+00 0.0000e+00 1.0000e+00
       23  2    1    2    0    0 +2.6059803152e+01 -4.4523506076e+01 +8.5381928144e+00 1.0450621209e+02 9.0483101713e+01 0.0000e+00 0.0000e+00
       25  2    1    2    0    0 -2.6059803152e+01 +4.4523506076e+01 -8.5381928144e+00 1.3549378791e+02 1.2499683953e+02 0.0000e+00 0.0000e+00
      -13  1    3    3    0    0 +9.0323389967e+00 -6.1589876855e+01 +3.2750594976e+01 7.0338450012e+01 0.0000000000e+00 0.0000e+00 1.0000e+00
       13  1    3    3    0    0 +1.7027464155e+01 +1.7066370779e+01 -2.4212402162e+01 3.4167762080e+01 0.0000000000e+00 0.0000e+00 -1.0000e+00
        5  1    4    4  501    0 -3.2974728615e+01 -1.7051970957e+01 -4.2770515097e+00 3.7662788138e+01 4.7000000000e+00 0.0000e+00 -1.0000e+00
       -5  1    4    4    0  502 -2.9789737480e+00 +1.8742167404e+01 +1.6951724577e+01 2.5876516182e+01 4.7000000000e+00 0.0000e+00 -1.0000e+00
        5  1    4    4  502    0 +2.7546615543e+01 +3.7245204883e+01 -4.8747264151e+00 4.6817456918e+01 4.7000000000e+00 0.0000e+00 -1.0000e+00
       -5  1    4    4    0  501 -1.7652716332e+01 +5.5881047462e+00 -1.6338139466e+01 2.5137026669e+01 4.7000000000e+00 0.0000e+00 -1.0000e+00
</event>
<event>
10      1 +4.6527485e-10 2.40000000e+02 7.81860800e-03 1.03012300e-01
      -11 -1    0    0    0    0 +0.0000000000e+00 +0.0000000000e+00 +1.2000000000e+02 1.2000000000e+02 0.0000000000e+00 0.0000e+00 1.0000e+00
       11 -1    0    0    0    0 -0.0000000000e+00 -0.0000000000e+00 -1.2000000000e+02 1.2000000000e+02 0.0000000000e+00 0.0000e+00 -1.0000e+00
       23  2    1    2    0    0 +6.4982155950e+00 +1.7949102481e+01 -3.3958329104e+01 1.0906852705e+02 1.0187432646e+02 0.0000e+00 0.0000e+00
       25  2    1    2    0    0 -6.4982155950e+00 -1.7949102481e+01 +3.3958329104e+01 1.3093147295e+02 1.2500194162e+02 0.0000e+00 0.0000e+00
      -13  1    3    3    0    0 -1.4385598634e+01 +2.4733972437e+00 -6.6122457194e+01 6.7714418607e+01 0.0000000000e+00 0.0000e+00 -1.0000e+00
       13  1    3    3    0    0 +2.0883814229e+01 +1.5475705237e+01 +3.2164128090e+01 4.1354108443e+01 0.0000000000e+00 0.0000e+00 1.0000e+00
        5  1    4    4  501    0 +1.7071102674e+01 -1.6520083126e+00 -1.5335906952e-01 1.7783846518e+01 4.7000000000e+00 0.0000e+00 -1.0000e+00
       -5  1    4    4    0  501 +2.4898146559e+01 -1.3431937863e+01 -1.8230401661e+01 3.3981939343e+01 4.7000000000e+00 0.0000e+00 -1.0000e+00
        5  1    4    4  502    0 -3.9914961448e+01 +4.3944142924e-01 +5.5376034586e+01 6.8425086501e+01 4.7000000000e+00 0.0000e+00 1.0000e+00
       -5  1    4    4    0  502 -8.5525033794e+00 -3.3045977344e+00 -3.0339447513e+00 1.0740600588e+01 4.7000000000e+00 0.0000e+00 1.0000e+00
</event>
<event>
10      1 +4.6527485e-10 2.40000000e+02 7.81860800e-03 1.03012300e-01
      -11 -1    0    0    0    0 +0.0000000000e+00 +0.0000000000e+00 +1.2000000000e+02 1.2000000000e+02 0.0000000000e+00 0.0000e+00 1.0000e+00
       11 -1    0    0    0    0 -0.0000000000e+00 -0.0000000000e+00 -1.2000000000e+02 1.2000000000e+02 0.0000000000e+00 0.0000e+00 -1.0000e+00
       23  2    1    2    0    0 -2.8867550904e+01 +1.9622815050e+01 +3.3494233683e+01 1.0596186515e+02 9.4274401667e+01 0.0000e+00 0.0000e+00
       25  2    1    2    0    0 +2.8867550904e+01 -1.9622815050e+01 -3.3494233683e+01 1.3403813485e+02 1.2500387010e+02 0.0000e+00 0.0000e+00
      -13  1    3    3    0    0 -1.6322579155e+01 +3.2392568491e+01 +6.2274820218e+01 7.2068428017e+01 0.0000000000e+00 0.0000e+00 1.0000e+00
       13  1    3    3    0    0 -1.2544971749e+01 -1.2769753441e+01 -2.8780586536e+01 3.3893437130e+01 0.0000000000e+00 0.0000e+00 -1.0000e+00
        5  1    4    4  501    0 +5.2828492414e+01 -6.8529559639e+00 -4.3966105369e+00 5.3658483024e+01 4.7000000000e+00 0.0000e+00 1.0000e+00
       -5  1    4    4    0  501 +2.1786205361e+01 +3.3849670013e+00 -1.0782908229e+01 2.4989154757e+01 4.7000000000e+00 0.0000e+00 1.0000e+00
        5  1    4    4  502    0 -3.5451250588e+01 -1.9151242513e+01 -1.4107843966e+01 4.2949767396e+01 4.7000000000e+00 0.0000e+00 -1.0000e+00
       -5  1    4    4    0  502 -1.0295896283e+01 +2.9964164256e+00 -4.2068709512e+00 1.2440729676e+01 4.7000000000e+00 0.0000e+00 1.0000e+00
</event>
</LesHouchesEvents>
